version 2
run ATSConfig-0-20130619-20:13:03-9512
attr configname ATSConfig
attr datetime 20130619-20:13:03
attr experiment ATSConfig
attr inifile E:/2011112922/workspace/omnetpp/OverSim-20101103/simulations/omnetpp.ini
attr iterationvars ""
attr iterationvars2 $repetition=0
attr measurement ""
attr network oversim.underlay.simpleunderlay.SimpleUnderlayNetwork
attr processid 9512
attr repetition 0
attr replication #0
attr resultdir results
attr runnumber 0
attr seedset 0

vector 1  SimpleUnderlayNetwork.globalObserver.globalStatistics  Fanjing:ATS:maxdataTimeStamp  ETV
vector 2  SimpleUnderlayNetwork.globalObserver.globalStatistics  Fanjing:ATS:JoinTime  ETV
vector 3  SimpleUnderlayNetwork.globalObserver.globalStatistics  "GlobalNodeList: Number of nodes"  ETV
1	3007186	1478.775846628	0.2962549299998
1	3007412	1478.78093206	0.25673098999982
1	3007501	1478.782390896	0.26155756200001
1	3007593	1478.784660962	0.25730760099987
1	3007779	1478.789699051	0.25107132399989
1	3007794	1478.789896116	0.25081055099986
1	3007917	1478.79168431	0.24780635499997
1	3007945	1478.791808346	0.24111918099993
1	3007990	1478.792513554	0.27549901499992
1	3008059	1478.793513581	0.25966630999983
1	3008065	1478.793712074	0.25333199299985
1	3008082	1478.793882578	0.26272523499983
1	3008088	1478.793963674	0.27689628199983
1	3008101	1478.794126186	0.25813057400001
1	3008104	1478.794177674	0.27553017299988
1	3008110	1478.794249516	0.24823845499986
1	3008132	1478.794846645	0.2579063029998
1	3008152	1478.795032175	0.26291348899986
1	3008180	1478.795452051	0.27168862299982
1	3008194	1478.795688434	0.23390111899994
1	3008207	1478.795715816	0.27827465399992
1	3008230	1478.795780934	0.27871976799997
1	3008238	1478.795837246	0.24963110399995
1	3008255	1478.796123522	0.2464379779999
1	3008260	1478.796213062	0.25615786799995
1	3008284	1478.796567152	0.24611973699984
1	3008309	1478.796774282	0.25430100799986
1	3008323	1478.797026726	0.24805146799986
1	3008325	1478.797063198	0.27405098999998
1	3008342	1478.797085396	0.24835488299982
1	3008355	1478.797106683	0.2751278799999
1	3008369	1478.797343802	0.2325213659999
1	3008374	1478.797382943	0.24772453299988
1	3008388	1478.797609467	0.24701703799997
1	3008390	1478.797665889	0.24712836499998
1	3008404	1478.797700131	0.24720926199984
1	3008412	1478.79771847	0.25191259500002
1	3008443	1478.797972429	0.24986163699987
1	3008451	1478.79807221	0.25325864699994
1	3008455	1478.79814035	0.27771905199984
1	3008465	1478.798207444	0.250637289
1	3008467	1478.7983227	0.25512690300002
1	3008469	1478.798327909	0.25747390099991
1	3008477	1478.798461031	0.25175024999999
1	3008487	1478.798521863	0.2530221789998
1	3008499	1478.798689974	0.24956971999995
1	3008506	1478.798720112	0.25375882999992
1	3008514	1478.79878489	0.2484500229998
1	3008531	1478.799024612	0.27374218499995
1	3008541	1478.79911617	0.25094115000002
1	3008567	1478.799370768	0.25391052700002
1	3008583	1478.799444277	0.25408648999996
1	3008588	1478.79950504	0.24143262899997
1	3008595	1478.799708596	0.24746212499986
1	3008627	1478.799998333	0.256590125
1	3008632	1478.800011487	0.26088955399996
1	3008641	1478.800284771	0.25153754299981
1	3008655	1478.80045897	0.27235947700001
1	3008659	1478.800607061	0.24965690099998
1	3008661	1478.800635221	0.27318674100002
1	3008668	1478.80069232	0.25929923599983
1	3008679	1478.800793212	0.23974221799995
1	3008681	1478.800801994	0.25208423100003
1	3008683	1478.80082019	0.27232985000001
1	3008688	1478.801023851	0.25473919199999
1	3008697	1478.801147624	0.24816691799992
1	3008701	1478.80120296	0.24738199699982
1	3008714	1478.801323	0.25324805199989
1	3008724	1478.801400192	0.25194932799991
1	3008741	1478.801411478	0.235406001
1	3008770	1478.801814234	0.2526851529999
1	3008772	1478.801897724	0.26796899399983
1	3008781	1478.8019928	0.24246462299993
1	3008786	1478.802115767	0.24552393299996
1	3008794	1478.802404365	0.24606322699992
1	3008811	1478.80252033	0.24496167999996
1	3008820	1478.802573581	0.24590994499999
1	3008830	1478.802770913	0.23110863199986
1	3008848	1478.803010699	0.24421187500002
1	3008850	1478.803011695	0.25170570299997
1	3008865	1478.803148536	0.24919295899986
1	3008867	1478.803153259	0.25456245700002
1	3008872	1478.803217703	0.25731050199988
1	3008883	1478.803303144	0.25503565399981
1	3008885	1478.803377235	0.25352825799996
1	3008890	1478.803559783	0.25531675799994
1	3008892	1478.803585666	0.25804240000002
1	3008894	1478.803606211	0.24649538999984
1	3008898	1478.803815567	0.24583223299987
1	3008900	1478.803829634	0.2350709169998
1	3008902	1478.803940783	0.25861110999995
1	3008909	1478.804004209	0.25616264899986
1	3008914	1478.80402488	0.25094576099991
1	3008916	1478.804065789	0.25012477399991
1	3008928	1478.804186032	0.249898712
1	3008935	1478.804238217	0.23485263799989
1	3008940	1478.804308496	0.26941652699998
1	3008942	1478.804321343	0.24142259299992
1	3008949	1478.804574513	0.25266419499985
1	3008993	1478.80496978	0.25077802999999
1	3009011	1478.805099298	0.24109992099989
1	3009019	1478.80524867	0.2560277619998
1	3009030	1478.805504465	0.25149107499988
1	3009032	1478.805561429	0.25337508299981
1	3009038	1478.805632226	0.25849355399987
1	3009040	1478.805650894	0.25267585699999
1	3009075	1478.806105882	0.26977990099999
1	3009086	1478.806220953	0.25227758699998
1	3009090	1478.806260651	0.25031654099985
1	3009092	1478.806272768	0.25425496599996
1	3009096	1478.806393002	0.23077427999988
1	3009109	1478.806483567	0.24738701899992
1	3009141	1478.806763323	0.25262384799998
1	3009147	1478.80698415	0.24931456499985
1	3009149	1478.806997074	0.27181530500002
1	3009173	1478.807315657	0.26410613500002
1	3009177	1478.807385598	0.2514223029998
1	3009181	1478.807404253	0.27023069899997
1	3009188	1478.807521958	0.27753700199992
1	3009237	1478.80803254	0.27179942999987
1	3009239	1478.8080771	0.23949601300001
1	3009242	1478.808103381	0.25124677399981
1	3009249	1478.808148423	0.22871274699992
1	3009251	1478.808155004	0.27726561499981
1	3009255	1478.80826888	0.2302703429998
1	3009257	1478.808314613	0.25628512200001
1	3009278	1478.808655292	0.24969665899994
1	3009280	1478.808684183	0.26876455699994
1	3009289	1478.80892676	0.26357915199992
1	3009296	1478.808992253	0.24736446599991
1	3009306	1478.809202391	0.22432957399997
1	3009310	1478.809383954	0.23205841899994
1	3009330	1478.809654222	0.23281265699984
1	3009338	1478.809717557	0.24976948499989
1	3009348	1478.809774314	0.25575142100001
1	3009362	1478.810381961	0.25009275999992
1	3009364	1478.810384333	0.24570456599986
1	3009389	1478.810886337	0.23330785500002
1	3009414	1478.811537177	0.2535840779999
1	3009424	1478.811858569	0.23810074099993
1	3009433	1478.811947724	0.23352777699984
1	3009444	1478.81204745	0.23395151699992
1	3009456	1478.812187571	0.23402778699983
1	3009458	1478.812188056	0.25052333500003
1	3009467	1478.812311376	0.23448713999983
1	3009481	1478.812444075	0.26857676999998
1	3009496	1478.812577272	0.23234957599993
1	3009498	1478.812585633	0.26868031100003
1	3009503	1478.812697555	0.23718758699988
1	3009510	1478.813092425	0.25825855899984
1	3009530	1478.813574521	0.23610051799983
1	3009538	1478.813660744	0.23981218899985
1	3009544	1478.813758858	0.23742915399998
1	3009552	1478.813856661	0.24473711199994
1	3009554	1478.813896732	0.21632860399995
1	3009561	1478.814059005	0.25136490099999
1	3009569	1478.814223531	0.23345483899993
1	3009573	1478.814269107	0.236024176
1	3009587	1478.814578545	0.26955953399988
1	3009596	1478.814864736	0.22930552399998
1	3009608	1478.815077407	0.23461845299994
1	3009610	1478.815388877	0.25843716299983
1	3009616	1478.815471887	0.23774372100002
1	3009631	1478.815895887	0.22965743199984
1	3009633	1478.815913509	0.24261067199996
1	3009635	1478.816051337	0.23719474599989
1	3009639	1478.816097857	0.25019809599985
1	3009650	1478.816264647	0.25750371699996
1	3009668	1478.817500292	0.083958094000081
1	3009670	1478.817652782	0.22427182999991
1	3009687	1478.81810204	0.26264294299995
1	3009708	1478.818209846	0.23557596899991
1	3009718	1478.818370301	0.25238684800001
1	3009720	1478.818462637	0.24486420899984
1	3009740	1478.819132884	0.22645380599988
1	3009749	1478.81917158	0.22316679799997
1	3009765	1478.820014717	0.27765220899983
1	3009791	1478.820515819	0.23280115499983
1	3009795	1478.820554279	0.24688927099987
1	3009803	1478.820747783	0.22447270899988
1	3009854	1478.821374901	0.24773125199999
1	3009860	1478.821480602	0.25392001
1	3009864	1478.821783421	0.22283057300001
1	3009921	1478.823220338	0.22575926199988
1	3009945	1478.823657538	0.24970809899992
1	3009947	1478.823658349	0.227911081
1	3010001	1478.824176317	0.25910537300001
1	3010022	1478.824810292	0.22875264999993
1	3010050	1478.825546967	0.22062891199994
1	3010054	1478.825689935	0.21410508199983
1	3010155	1478.827232362	0.23078085099996
1	3010196	1478.828030515	0.25336599499997
1	3010200	1478.828060331	0.24928784600002
1	3010316	1478.830113297	0.26019448299985
1	3010336	1478.830396934	0.25368358299988
1	3010616	1478.835514024	0.25587076699981
1	3010662	1478.836147942	0.24932199
1	3010742	1478.83712867	0.25545120699985
1	3010780	1478.838059994	0.22946459599984
1	3010782	1478.838256694	0.23626653899987
1	3010843	1478.839460003	0.25308419299995
1	3010853	1478.83959811	0.26770412499991
1	3010868	1478.839755808	0.25404905400001
1	3010879	1478.839897076	0.25350625399983
1	3010881	1478.839897911	0.27573472899985
1	3010913	1478.840467706	0.25585832699994
1	3010918	1478.840522787	0.26009096500002
1	3010976	1478.841183062	0.26208253599998
1	3010978	1478.841235434	0.26377494199983
1	3010985	1478.841451956	0.25035705999994
1	3011013	1478.841863327	0.26443349399983
1	3011018	1478.841937486	0.23660777800001
1	3011034	1478.842025457	0.25097597299987
1	3011056	1478.842172306	0.28349421500002
1	3011063	1478.8423872	0.25408205999997
1	3011065	1478.842440785	0.24678591299994
1	3011087	1478.842751575	0.25769426499983
1	3011096	1478.842845347	0.26062389899994
1	3011098	1478.842863053	0.26027272099986
1	3011104	1478.842864458	0.27439720799998
1	3011123	1478.842961854	0.2545602109999
1	3011146	1478.843232913	0.25928750399999
1	3011148	1478.843283313	0.27082486399991
1	3011153	1478.843456652	0.25921713599996
1	3011160	1478.843493505	0.25125367700002
1	3011189	1478.844183698	0.24619133599981
1	3011191	1478.844326838	0.2627280669999
1	3011214	1478.844722142	0.2533502199999
1	3011216	1478.844733229	0.26431819899994
1	3011222	1478.844803707	0.36430944799986
1	3011226	1478.844949537	0.26071704299989
1	3011232	1478.845161116	0.25092941999992
1	3011258	1478.845296771	0.24955441099996
1	3011275	1478.845361966	0.25148272000001
1	3011297	1478.845516989	0.26070044299991
1	3011312	1478.845884682	0.25150281799984
1	3011316	1478.845907493	0.266654733
1	3011323	1478.846056551	0.24999605199991
1	3011342	1478.846397958	0.24946702099987
1	3011358	1478.846544535	0.25909494799998
1	3011372	1478.846682195	0.24669992700001
1	3011402	1478.847031781	0.23400806299992
1	3011406	1478.847091204	0.26095004199988
1	3011420	1478.847325444	0.257627275
1	3011424	1478.847337741	0.25821520599993
1	3011433	1478.847389819	0.26551190499981
1	3011445	1478.847603781	0.22021604699989
1	3011447	1478.847617242	0.27282833799995
1	3011469	1478.847742632	0.24498669699983
1	3011490	1478.84800216	0.2508813899999
1	3011599	1478.848985147	0.25192758200001
1	3011607	1478.849014027	0.249429384
1	3011618	1478.84908257	0.24794439099992
1	3011666	1478.849943297	0.25264671699983
1	3011668	1478.849996765	0.24643834299991
1	3011692	1478.850155537	0.249355014
1	3011710	1478.85023243	0.20212506099983
1	3011712	1478.850251116	0.24356334200002
1	3011739	1478.850378574	0.24199272099986
1	3011749	1478.85063793	0.24869929199986
1	3011758	1478.8507685	0.24376186999984
1	3011760	1478.850778765	0.23803180300001
1	3011845	1478.851963819	0.2498616769999
1	3011847	1478.851976457	0.24928357399995
1	3011851	1478.85207093	0.25710235899987
1	3011853	1478.852085967	0.23581662799984
1	3011864	1478.852091284	0.25656493899987
1	3011880	1478.852220903	0.23677065899983
1	3011885	1478.852410103	0.25392187399984
1	3011901	1478.852571495	0.25011685599998
1	3011916	1478.852681629	0.24634784799991
1	3011924	1478.852778001	0.23286656499999
1	3011928	1478.852967129	0.2477761959999
1	3011930	1478.853006517	0.2533894889998
1	3011932	1478.853071548	0.25352658199995
1	3011936	1478.85311003	0.24892135499999
1	3011940	1478.853139149	0.25266522899983
1	3011959	1478.85350819	0.24759285799996
1	3011975	1478.853633241	0.2494134489998
1	3011980	1478.853794182	0.24745600899996
1	3012039	1478.853943444	0.24351656099998
1	3012050	1478.854099142	0.24833621699986
1	3012061	1478.854464608	0.25498638599993
1	3012066	1478.854524236	0.24655506299996
1	3012068	1478.854608875	0.24917527599996
1	3012074	1478.854653227	0.24812583599987
1	3012086	1478.854705675	0.24853471099982
1	3012095	1478.854939842	0.25328067999999
1	3012102	1478.854965097	0.24751757699983
1	3012126	1478.855250426	0.25185316900001
1	3012129	1478.855253967	0.24777173400003
1	3012131	1478.855256636	0.24752088399987
1	3012134	1478.855319115	0.25782875099981
1	3012136	1478.85535721	0.24730223699999
1	3012143	1478.855486617	0.24948721700002
1	3012145	1478.855515331	0.25466545199993
1	3012164	1478.855716637	0.25019633099987
1	3012171	1478.85581751	0.24689073199988
1	3012173	1478.855850817	0.2769209999999
1	3012175	1478.855856189	0.25215774699996
1	3012187	1478.856049026	0.25439314099981
1	3012196	1478.856169359	0.22990278199995
1	3012203	1478.856222576	0.249090325
1	3012205	1478.85623136	0.24901495099994
1	3012207	1478.856237522	0.2554607579998
1	3012209	1478.856269267	0.24816962099999
1	3012214	1478.856308351	0.24523195400002
1	3012226	1478.856746447	0.2454437949998
1	3012228	1478.856767426	0.23697922099996
1	3012238	1478.856959283	0.24729692899996
1	3012241	1478.856976396	0.24987631499994
1	3012243	1478.857045858	0.25904837600001
1	3012245	1478.857103048	0.24417537599993
1	3012262	1478.857465078	0.24986858099987
1	3012266	1478.857624442	0.24619741699985
1	3012284	1478.85772906	0.25230752599987
1	3012288	1478.85781245	0.24874572099998
1	3012313	1478.857904895	0.25072374899992
1	3012335	1478.858027572	0.24371547099986
1	3012378	1478.858767948	0.251927604
1	3012392	1478.858890161	0.19224886400002
1	3012394	1478.858905001	0.25586223999994
1	3012396	1478.858930137	0.24543021399995
1	3012403	1478.859009259	0.24563792499998
1	3012418	1478.859553409	0.24820936799983
1	3012431	1478.859823293	0.24626912500003
1	3012439	1478.860050692	0.24682521299997
1	3012454	1478.860292908	0.24519709099991
1	3012458	1478.860469613	0.24259620999987
1	3012471	1478.860529016	0.24380736099988
1	3012476	1478.860645081	0.24953917899984
1	3012479	1478.860807285	0.21379774599995
1	3012520	1478.861373276	0.252675361
1	3012526	1478.861442033	0.24902650099989
1	3012542	1478.861955697	0.24855429499985
1	3012555	1478.862336884	0.24913049399993
1	3012578	1478.862738113	0.2443467789999
1	3012613	1478.8635886	0.24599577100003
1	3012615	1478.863612854	0.22695797899996
1	3012640	1478.864173666	0.23819804599998
1	3012671	1478.864682665	0.24220536199982
1	3012709	1478.865465591	0.23298464799996
1	3012722	1478.865923584	0.24006703700002
1	3012734	1478.866147468	0.23441229899981
1	3012750	1478.866603985	0.26854682299995
1	3012754	1478.866934292	0.23337628599984
1	3012774	1478.867198638	0.23401639899998
1	3012837	1478.867764443	0.23879437599999
1	3012841	1478.867795216	0.23376997699984
1	3012856	1478.868032244	0.28117099399992
1	3012858	1478.86805702	0.21262956299984
1	3012884	1478.868601067	0.22246267499986
1	3012889	1478.868843204	0.21660560800001
1	3012948	1478.869278423	0.21930075299997
1	3012990	1478.870088679	0.22867385299992
1	3013015	1478.870668587	0.23963291399991
1	3013019	1478.870683159	0.22833332599998
1	3013021	1478.870700713	0.23000655999999
1	3013025	1478.870829794	0.24578756799997
1	3013027	1478.870872025	0.22429005899994
1	3013047	1478.871418968	0.31178070399983
1	3013069	1478.871925244	0.14165868099985
1	3013080	1478.87210739	0.28655675699997
1	3013109	1478.872440001	0.24353734599981
1	3013113	1478.872483256	0.21677558099987
1	3013130	1478.872855202	0.22244666999995
1	3013174	1478.874002195	0.22219795699993
1	3013193	1478.874091402	0.22692722199986
1	3013197	1478.874172129	0.23581358899992
1	3013219	1478.87456531	0.22748019999995
1	3013244	1478.875067128	0.22818221900002
1	3013247	1478.875258088	0.22099842599982
1	3013251	1478.875305159	0.2287241099998
1	3013297	1478.876395143	0.21927110000001
1	3013339	1478.877258428	0.2267790169999
1	3013391	1478.878446351	0.21799623399988
1	3013410	1478.878923035	0.21145643799991
1	3013425	1478.879313794	0.23542971799998
1	3013427	1478.879392685	0.20421275799981
1	3013457	1478.880137449	0.22812708499987
1	3013468	1478.880483162	0.21249790899992
1	3013474	1478.880558399	0.23324666199983
1	3013476	1478.880582827	0.21456140199984
1	3013486	1478.88060963	0.22225640800002
1	3013508	1478.881089666	0.22260299499999
1	3013512	1478.881138708	0.22666238499983
1	3013519	1478.881333873	0.23492467999995
1	3013573	1478.883009081	0.30336658900001
1	3013576	1478.883072171	0.22413418999986
1	3013586	1478.883462858	0.227417371
1	3013594	1478.883610345	0.208993749
1	3013618	1478.884901306	0.22058536099985
1	3013628	1478.885262889	0.21988885299993
1	3013652	1478.886092685	0.23621801799982
1	3013665	1478.886596338	0.21979027099997
1	3013667	1478.88684349	0.22671648699998
1	3013669	1478.886984997	0.2154393379999
1	3013685	1478.888041322	0.2029730669999
1	3013699	1478.888989768	0.209022409
1	3013743	1478.890461507	0.21538349299999
1	3013745	1478.890499771	0.22799252799996
1	3013749	1478.8908358	0.23215662999996
1	3013762	1478.891498318	0.21938164199992
1	3013786	1478.892880153	0.22191442099984
1	3013807	1478.89387854	0.19920860999991
1	3013900	1478.898339692	0.17496414999982
1	3013945	1478.89958026	0.27803607700002
1	3014100	1478.907299157	0.2188532319999
1	3014138	1478.909745595	0.18869557599987
1	3014140	1478.90981313	0.20576164699992
1	3014154	1478.910444665	0.35979599799998
1	3014179	1478.911040931	0.31104547399991
1	3014212	1478.913447687	0.21147339899994
1	3014225	1478.914312407	0.218311137
1	3014261	1478.917399017	0.18962456199984
1	3014300	1478.919956507	0.18398953399992
1	3014339	1478.922059349	0.29442168699984
1	3014346	1478.922522213	0.28878381300001
1	3014369	1478.923597835	0.21872114099983
1	3014374	1478.924052485	0.20849858699989
1	3014393	1478.924717296	0.19147761399995
1	3014438	1478.928108659	0.2795474049999
1	3014440	1478.928225792	0.19724957800008
1	3014465	1478.929102788	0.20130350699992
1	3014470	1478.929292526	0.26925376299982
1	3014479	1478.930334759	0.19835112300007
1	3014487	1478.930643754	0.27615859399998
1	3014497	1478.931512684	0.19888044499999
1	3014514	1478.932487834	0.19303953200006
1	3014528	1478.932732547	0.29680327999995
1	3014573	1478.935036592	0.19551258999991
1	3014590	1478.935396807	0.2253689879999
1	3014620	1478.936541	0.20851814599996
1	3014666	1478.939564928	0.20664726299992
1	3014668	1478.939634396	0.1948496519999
1	3014670	1478.939701386	0.2096743300001
1	3014736	1478.942649547	0.2037219419999
1	3014774	1478.944030152	0.21231758900012
1	3014794	1478.944285814	0.20947186599983
1	3014845	1478.945236257	0.21375491100002
1	3014869	1478.946325391	0.20788810399995
1	3014871	1478.946399172	0.21641458299996
1	3014876	1478.946452878	0.21477658399999
1	3014878	1478.946574843	0.21514927299995
1	3014897	1478.946838852	0.21512508799992
1	3014899	1478.947018813	0.24145184399981
1	3014938	1478.947488624	0.21576054799993
1	3014951	1478.947819107	0.21676346799995
1	3014992	1478.949243702	0.21743414999992
1	3014994	1478.949357918	0.21754610400012
1	3015008	1478.949795015	0.21539664600004
1	3015027	1478.950509285	0.21565205999991
1	3015051	1478.950856459	0.22044167100012
1	3015067	1478.95119919	0.20223416900012
1	3015075	1478.951339622	0.21599336399981
1	3015077	1478.951454198	0.22129160100008
1	3015103	1478.951994825	0.22009893199993
1	3015108	1478.95203913	0.21419747799996
1	3015119	1478.952495012	0.23050506699997
1	3015122	1478.952513704	0.22160489900011
1	3015145	1478.953000805	0.21050072399998
1	3015221	1478.954846353	0.24015902799988
1	3015229	1478.955040093	0.2098093269999
1	3015233	1478.955076623	0.33742331600001
1	3015238	1478.955216988	0.22047429899999
1	3015248	1478.955275572	0.22153931000003
1	3015261	1478.955725588	0.22572130999993
1	3015269	1478.956106088	0.22965327799989
1	3015346	1478.957918832	0.21595120400002
1	3015348	1478.957988233	0.21389573100009
1	3015355	1478.95805224	0.22644751400003
1	3015388	1478.95899565	0.21799301400006
1	3015398	1478.959417131	0.228169321
1	3015412	1478.959688343	0.2233651680001
1	3015419	1478.95978301	0.23623080499988
1	3015421	1478.959819931	0.23817005799992
1	3015434	1478.960603392	0.22555882000006
1	3015436	1478.960762369	0.22605275499996
1	3015444	1478.961225295	0.22211444999994
1	3015469	1478.962158345	0.22286696800006
1	3015477	1478.962402806	0.21523340099998
1	3015546	1478.963678629	0.23044491900009
1	3015641	1478.967205863	0.23250598499999
1	3015643	1478.96728548	0.22286205399996
1	3015663	1478.967422568	0.22329034399991
1	3015679	1478.967736336	0.21532540900012
1	3015694	1478.967954861	0.22546934799993
1	3015933	1478.970925787	0.21762593400013
1	3015950	1478.971253467	0.25437782899985
1	3016005	1478.972006753	0.22854824199999
1	3016214	1478.976257535	0.24488969000004
1	3016442	1478.98154133	0.30863731199997
1	3016893	1478.996259821	0.25978656699999
1	3017017	1479.000754094	0.26711073299998
1	3017149	1479.005302117	0.25151232000007
1	3017225	1479.007850597	0.27729291500009
1	3017253	1479.008822468	0.27478018400006
1	3017285	1479.009826026	0.27583499100001
1	3017384	1479.012454284	0.26181953800005
2	3007186	1478.775846628	0.679429607
2	3007412	1478.78093206	0.645410938
2	3007501	1478.782390896	0.61364936100001
2	3007593	1478.784660962	0.622511489
2	3007779	1478.789699051	0.20228331799999
2	3007794	1478.789896116	0.28346835600001
2	3007917	1478.79168431	0.747559792
2	3007945	1478.791808346	0.19619014599996
2	3007990	1478.792513554	0.14715255299996
2	3008059	1478.793513581	0.15475161499995
2	3008065	1478.793712074	0.12421428800008
2	3008082	1478.793882578	0.762470023
2	3008088	1478.793963674	0.12208017600005
2	3008101	1478.794126186	0.14481649500004
2	3008104	1478.794177674	0.11923215799993
2	3008110	1478.794249516	0.565250371
2	3008132	1478.794846645	0.13148416199999
2	3008152	1478.795032175	0.13706957799991
2	3008180	1478.795452051	0.26322684700003
2	3008194	1478.795688434	0.297551379
2	3008207	1478.795715816	0.12609000400005
2	3008230	1478.795780934	0.12942847299996
2	3008238	1478.795837246	0.11713576599999
2	3008255	1478.796123522	0.772241735
2	3008260	1478.796213062	0.26522349199999
2	3008284	1478.796567152	0.22344787
2	3008309	1478.796774282	0.189127283
2	3008323	1478.797026726	0.12546861900012
2	3008325	1478.797063198	0.17430154799996
2	3008342	1478.797085396	0.10492022400001
2	3008355	1478.797106683	0.12989112600008
2	3008369	1478.797343802	0.288417438
2	3008374	1478.797382943	0.11143512599995
2	3008388	1478.797609467	0.14603286200003
2	3008390	1478.797665889	0.11279671600005
2	3008404	1478.797700131	0.10517900000002
2	3008412	1478.79771847	0.11000917800015
2	3008443	1478.797972429	0.10771337399979
2	3008451	1478.79807221	0.11682165299976
2	3008455	1478.79814035	0.12248854300003
2	3008465	1478.798207444	0.10105473500005
2	3008467	1478.7983227	0.12192886299988
2	3008469	1478.798327909	0.13930347799999
2	3008477	1478.798461031	0.12297690299999
2	3008487	1478.798521863	0.11429160700027
2	3008499	1478.798689974	0.10413902699997
2	3008506	1478.798720112	0.308581014
2	3008514	1478.79878489	0.10069471999998
2	3008531	1478.799024612	0.13921761500001
2	3008541	1478.79911617	0.12093691300015
2	3008567	1478.799370768	0.12428424899997
2	3008583	1478.799444277	0.11746103799987
2	3008588	1478.79950504	0.12728927300009
2	3008595	1478.799708596	0.15847391699998
2	3008627	1478.799998333	0.13018241399982
2	3008632	1478.800011487	0.15512072999991
2	3008641	1478.800284771	0.10767957900021
2	3008655	1478.80045897	0.14534212800004
2	3008659	1478.800607061	0.12920780100006
2	3008661	1478.800635221	0.14415500699988
2	3008668	1478.80069232	0.13642491199971
2	3008679	1478.800793212	0.15419071000019
2	3008681	1478.800801994	0.11023457200008
2	3008683	1478.80082019	0.867722401
2	3008688	1478.801023851	0.11995510199995
2	3008697	1478.801147624	0.14655456699995
2	3008701	1478.80120296	0.14496132299996
2	3008714	1478.801323	0.13918157100011
2	3008724	1478.801400192	0.10354209900015
2	3008741	1478.801411478	0.16459340199998
2	3008770	1478.801814234	0.11470820900013
2	3008772	1478.801897724	0.16835549800004
2	3008781	1478.8019928	0.11976464700024
2	3008786	1478.802115767	0.12693298000022
2	3008794	1478.802404365	0.13998249699989
2	3008811	1478.80252033	0.1203800799999
2	3008820	1478.802573581	0.13362373899986
2	3008830	1478.802770913	0.17900676199997
2	3008848	1478.803010699	0.12504218100003
2	3008850	1478.803011695	0.33012253800001
2	3008865	1478.803148536	0.12553844600006
2	3008867	1478.803153259	0.15033289200005
2	3008872	1478.803217703	0.14347181799985
2	3008883	1478.803303144	0.15215744700026
2	3008885	1478.803377235	0.135503384
2	3008890	1478.803559783	0.11314297000013
2	3008892	1478.803585666	0.11445299599995
2	3008894	1478.803606211	0.14047809199974
2	3008898	1478.803815567	0.13029765100009
2	3008900	1478.803829634	0.17690701299995
2	3008902	1478.803940783	0.12133935599991
2	3008909	1478.804004209	0.14409891899982
2	3008914	1478.80402488	0.13379873499991
2	3008916	1478.804065789	0.11949963200004
2	3008928	1478.804186032	0.13357262999989
2	3008935	1478.804238217	0.15565621299993
2	3008940	1478.804308496	0.15939996399993
2	3008942	1478.804321343	0.14695128899996
2	3008949	1478.804574513	0.15681683599996
2	3008993	1478.80496978	0.17635225099997
2	3009011	1478.805099298	0.14593569099998
2	3009019	1478.80524867	0.12684459399998
2	3009030	1478.805504465	0.17570126000004
2	3009032	1478.805561429	0.13572429299995
2	3009038	1478.805632226	0.20247955900004
2	3009040	1478.805650894	0.13665117199992
2	3009075	1478.806105882	0.14110347400003
2	3009086	1478.806220953	0.1465122799998
2	3009090	1478.806260651	0.11648720599999
2	3009092	1478.806272768	0.14333083300016
2	3009096	1478.806393002	0.18159331200002
2	3009109	1478.806483567	0.50069429700001
2	3009141	1478.806763323	0.1396084439998
2	3009147	1478.80698415	0.16212993099987
2	3009149	1478.806997074	0.14689314900011
2	3009173	1478.807315657	0.20835468900003
2	3009177	1478.807385598	0.1486754189998
2	3009181	1478.807404253	0.16042742699995
2	3009188	1478.807521958	0.16002056999969
2	3009237	1478.80803254	0.14621523300002
2	3009239	1478.8080771	0.14939095399973
2	3009242	1478.808103381	0.21116455399999
2	3009249	1478.808148423	0.19931257100001
2	3009251	1478.808155004	0.14718400700002
2	3009255	1478.80826888	0.764832792
2	3009257	1478.808314613	0.14258345600012
2	3009278	1478.808655292	0.233655954
2	3009280	1478.808684183	0.15513559400006
2	3009289	1478.80892676	0.21482705899999
2	3009296	1478.808992253	0.17636362500008
2	3009306	1478.809202391	0.22068563999997
2	3009310	1478.809383954	0.24552680600004
2	3009330	1478.809654222	0.16614709600003
2	3009338	1478.809717557	0.17825060900009
2	3009348	1478.809774314	0.14397418199997
2	3009362	1478.810381961	0.16778613399993
2	3009364	1478.810384333	0.16389481300007
2	3009389	1478.810886337	0.15576328600002
2	3009414	1478.811537177	0.1255446319999
2	3009424	1478.811858569	0.23505295799993
2	3009433	1478.811947724	0.15673110999978
2	3009444	1478.81204745	0.17292305599995
2	3009456	1478.812187571	0.15533673000016
2	3009458	1478.812188056	0.12851805599996
2	3009467	1478.812311376	0.17706673000009
2	3009481	1478.812444075	0.19318935199999
2	3009496	1478.812577272	0.17217642000003
2	3009498	1478.812585633	0.19866507699999
2	3009503	1478.812697555	0.24993958099998
2	3009510	1478.813092425	0.16741446100002
2	3009530	1478.813574521	0.15010448899989
2	3009538	1478.813660744	0.18736136000007
2	3009544	1478.813758858	0.15745869
2	3009552	1478.813856661	0.18460831699986
2	3009554	1478.813896732	0.49179065
2	3009561	1478.814059005	0.24004644900003
2	3009569	1478.814223531	0.19083597300005
2	3009573	1478.814269107	0.15490046400009
2	3009587	1478.814578545	0.18110912900033
2	3009596	1478.814864736	0.18946147199995
2	3009608	1478.815077407	0.20094765399995
2	3009610	1478.815388877	0.18578124399983
2	3009616	1478.815471887	0.15668632199959
2	3009631	1478.815895887	0.18761328600021
2	3009633	1478.815913509	0.18607463600006
2	3009635	1478.816051337	0.15962428399985
2	3009639	1478.816097857	0.22367837199988
2	3009650	1478.816264647	0.25706169999998
2	3009668	1478.817500292	0.2057078979999
2	3009670	1478.817652782	0.29219481800001
2	3009687	1478.81810204	0.21225676600011
2	3009708	1478.818209846	0.18191824300015
2	3009718	1478.818370301	0.22393598800022
2	3009720	1478.818462637	0.19886573700001
2	3009740	1478.819132884	0.20849786699989
2	3009749	1478.81917158	0.23260373699992
2	3009765	1478.820014717	0.21092018800005
2	3009791	1478.820515819	0.18889185499995
2	3009795	1478.820554279	0.22370915800013
2	3009803	1478.820747783	0.26788159700004
2	3009854	1478.821374901	0.23876051700006
2	3009860	1478.821480602	0.21331119799993
2	3009864	1478.821783421	0.40678457199999
2	3009921	1478.823220338	0.21507855499999
2	3009945	1478.823657538	0.28003773000006
2	3009947	1478.823658349	0.30137799699997
2	3010001	1478.824176317	0.25351213699992
2	3010022	1478.824810292	0.18880714800002
2	3010050	1478.825546967	0.31996383400002
2	3010054	1478.825689935	0.52524646600001
2	3010155	1478.827232362	0.2237015510002
2	3010196	1478.828030515	0.28729216699998
2	3010200	1478.828060331	0.23894813999999
2	3010316	1478.830113297	0.16107087599994
2	3010336	1478.830396934	0.35578083800002
2	3010616	1478.835514024	0.12856437299996
2	3010662	1478.836147942	0.26248454500001
2	3010742	1478.83712867	0.088890600999889
2	3010780	1478.838059994	0.40150459899996
2	3010782	1478.838256694	0.31638117
2	3010843	1478.839460003	0.081542322999894
2	3010853	1478.83959811	0.13141204300007
2	3010868	1478.839755808	0.061040400999673
2	3010879	1478.839897076	0.14842618299997
2	3010881	1478.839897911	0.13050972300005