version 2
run Chord-0-20130425-16:40:54-5620
attr configname Chord
attr datetime 20130425-16:40:54
attr experiment Chord
attr inifile E:/2011112922/WorkStations/OMNet41/OverSim-20101103/simulations/omnetpp.ini
attr iterationvars ""
attr iterationvars2 $repetition=0
attr measurement ""
attr network oversim.underlay.simpleunderlay.SimpleUnderlayNetwork
attr processid 5620
attr repetition 0
attr replication #0
attr resultdir results
attr runnumber 0
attr seedset 0

vector 1  SimpleUnderlayNetwork.globalObserver.globalStatistics  "GlobalNodeList: Number of nodes"  ETV
vector 2  SimpleUnderlayNetwork.globalObserver.globalStatistics  "KBRTestApp: One-way Hop Count"  ETV
vector 3  SimpleUnderlayNetwork.globalObserver.globalStatistics  "KBRTestApp: One-way Latency"  ETV
vector 4  SimpleUnderlayNetwork.globalObserver.globalStatistics  "LifetimeChurn: Time between deletes"  ETV
vector 5  SimpleUnderlayNetwork.globalObserver.globalStatistics  "LifetimeChurn: Session Time"  ETV
vector 6  SimpleUnderlayNetwork.globalObserver.globalStatistics  "LifetimeChurn: Time between creates"  ETV
1	1846	50	10
1	3015	100	10
1	4829	150	10
1	5944	200	9
1	7501	250	9
1	8500	300	9
1	9607	350	9
1	11112	400	9
1	12195	450	9
1	13664	500	9
1	14765	550	9
1	15757	600	9
1	17311	650	9
1	18321	700	9
1	19947	750	9
1	20927	800	9
1	22480	850	9
1	23515	900	9
1	24753	950	10
1	26438	1000	10
1	27697	1050	10
1	29400	1100	10
1	30580	1150	10
1	31735	1200	10
1	33548	1250	10
1	34673	1300	10
1	36462	1350	10
1	37562	1400	10
1	39375	1450	10
1	40500	1500	10
1	42081	1550	11
1	43884	1600	11
1	45481	1650	11
1	47268	1700	11
1	48545	1750	11
1	50031	1800	11
1	51923	1850	11
1	53445	1900	11
1	55319	1950	11
1	56515	2000	11
1	58672	2050	11
1	59841	2100	10
1	61319	2150	10
1	62925	2200	10
1	64395	2250	10
1	65971	2300	10
1	67163	2350	10
1	68499	2400	10
1	70197	2450	10
1	71794	2500	11
1	73646	2550	11
1	74898	2600	11
1	76933	2650	11
1	78264	2700	11
1	79776	2750	11
1	81527	2800	11
1	83178	2850	11
1	84893	2900	11
1	86248	2950	11
1	87771	3000	11
1	89583	3050	11
1	91113	3100	11
1	92931	3150	11
1	94201	3200	11
1	96260	3250	11
1	97609	3300	11
1	99151	3350	11
1	100860	3400	11
1	102493	3450	11
1	104208	3500	11
1	105599	3550	11
1	107050	3600	11
1	108874	3650	11
1	110332	3700	11
2	1915	51.484156282	3
2	1983	55.620685687	2
2	2010	56.303146799	3
2	2074	59.588434772	4
2	2154	61.603977758	3
2	2187	62.142455014	3
2	2190	62.171978909	3
2	2353	66.932012681	3
2	2466	70.735952194	3
2	2610	80.083178043	3
2	3338	112.103151315	3
2	3448	119.078740369	2
2	3473	119.629619237	3
2	3562	120.716791508	2
2	3703	121.918412047	3
2	3735	122.704791804	3
2	3963	124.930154923	3
2	4150	126.731550082	2
2	4354	128.620272526	3
2	4536	137.349143736	0
2	5269	170.118382658	3
2	5386	176.061676923	3
2	5432	178.83674189	3
2	5509	181.335639097	2
2	5575	183.906834276	0
2	5587	183.967748503	3
2	5697	186.766853756	3
2	5735	187.794707148	3
2	5900	195.959829035	2
2	6366	220.631757026	3
2	6651	232.900521254	3
2	6720	237.164263801	3
2	6731	237.626396357	0
2	6978	242.433001383	2
2	7007	242.857938422	2
2	7484	248.062088004	2
2	7651	255.304752956	3
2	7768	262.227965497	2
2	8157	282.505298282	3
2	8335	289.129820766	3
2	8360	289.996545159	3
2	8547	300.603681186	3
2	8591	302.007026805	2
2	8670	304.986998142	2
2	8742	306.195418114	3
2	8927	318.038449688	2
2	8961	320.010123797	3
2	9304	335.513621183	3
2	9330	337.4158003	2
2	9449	342.846644508	3
2	10196	365.117347186	3
2	10482	369.603959752	2
2	10576	370.991580443	3
2	10624	374.180972683	3
2	10684	376.762791276	3
2	10988	390.826711754	2
2	11048	394.978125782	3
2	11193	403.088767399	0
2	11405	410.898107019	3
2	11579	421.356342868	3
2	11610	423.456115401	2
2	11622	423.831081441	2
2	11795	429.93180128	3
2	11987	441.090593718	2
2	12194	449.660422256	3
2	12257	452.486306991	2
2	12425	462.457919699	3
2	12668	473.114405411	2
2	12694	474.673857442	2
2	12735	476.939124264	0
2	13111	484.725227704	0
2	13529	490.354114227	2
2	13738	501.354733996	3
2	13769	503.275908748	2
2	13820	504.365204676	3
2	14365	531.782349145	0
2	14406	534.51167264	3
2	14467	536.547613038	2
2	14476	536.667288125	3
2	14508	538.449392467	3
2	14696	545.756269766	2
2	14845	553.398859786	3
2	14920	558.360915944	2
2	15162	568.045811062	2
2	15634	593.180351331	3
2	15643	593.437563362	3
2	15662	594.375731209	2
2	15722	596.439000222	2
2	15728	596.640513703	2
2	16249	605.74582001	3
2	16647	616.703041141	3
2	16748	622.121335143	2
2	16926	628.969631714	3
2	17310	649.639359783	0
2	17384	652.658042064	3
2	17409	653.853242489	3
2	17462	655.459983413	3
2	17500	657.896523078	2
2	17757	669.17687563	3
2	17902	676.48487835	3
2	17905	676.617239653	2
2	18278	695.511197878	3
2	18549	708.658359509	2
2	18624	711.270385382	3
2	18650	711.697523931	3
2	18662	711.910636606	2
2	18677	712.306573952	3
2	19485	729.160011417	3
2	19868	745.977063562	3
2	19887	747.155050098	2
2	19939	749.24875659	3
2	20287	766.637456344	2
2	20334	768.936637271	3
2	20378	770.174743589	3
2	20433	772.740679573	2
2	20519	778.195387447	3
2	20774	789.10911878	3
2	20849	792.950386485	0
2	21036	804.235887253	2
2	21286	817.271670554	0
2	21604	831.975065349	2
2	21659	835.195087865	3
2	21692	836.256462423	2
2	21721	836.545273709	3
2	21733	836.93905412	3
2	22221	845.229807509	2
2	22660	858.016265699	3
2	22758	862.619054945	3
2	23079	879.746551885	3
2	23160	883.005817146	0
2	23280	886.364433186	0
2	23408	894.355510126	3
2	23494	898.243764426	3
2	23500	898.373310172	3
2	23854	915.511357616	2
2	24103	923.92149118	3
2	24347	933.618104784	2
2	24379	934.720246328	3
2	24568	944.065363542	2
2	24624	944.803041723	3
2	24661	945.164529035	2
2	24885	956.910168006	2
2	25032	961.016648049	3
2	25759	968.962202312	3
2	25951	977.331447159	3
2	26096	984.057462336	2
2	26252	988.164371377	3
2	26371	995.11267193	3
2	26531	1002.467579302	2
2	26690	1007.183080245	3
2	26702	1007.447129361	3
2	26908	1019.785390935	2
2	26987	1021.445958562	3
2	27249	1031.485176833	3
2	27358	1038.612215201	3
2	27585	1044.934586883	2
2	27813	1055.584205193	2
2	27866	1058.64169499	3
2	27886	1058.921168702	3
2	28005	1063.41675439	2
2	28165	1068.648639305	2
2	28274	1074.68246724	2
2	28620	1083.443571169	3
2	29332	1095.798917852	3
2	29351	1096.03531044	2
2	29357	1096.138099346	2
2	29600	1105.479025373	3
2	29841	1118.557646291	3
2	29844	1118.665656307	2
2	29902	1120.824504785	2
2	29977	1123.652952881	2
2	30076	1125.413100494	2
2	30533	1146.936025206	3
2	30667	1153.207562204	3
2	30728	1156.516685663	2
2	30747	1157.416084728	2
2	30814	1160.313387235	3
2	31186	1173.769295441	2
2	31240	1176.057484757	2
2	31274	1178.764763917	0
2	31367	1181.488002876	3
2	31407	1182.490055818	3
2	31821	1200.69876604	3
2	32569	1209.302029282	3
2	32691	1212.638184439	3
2	32754	1215.966139951	2
2	32951	1224.775290892	2
2	32998	1225.271767251	2
2	33058	1227.586485376	2
2	33167	1232.569986198	3
2	33237	1236.857056087	2
2	33316	1240.459108049	3
2	33970	1269.772775968	2
2	34058	1274.249342554	2
2	34075	1274.521636278	2
2	34139	1277.991853419	0
2	34158	1279.085633414	2
2	34321	1283.654009106	0
2	34446	1285.989207139	3
2	34602	1294.980905678	3
2	34750	1301.931154013	2
2	34778	1302.436871355	2
2	35314	1321.737338102	3
2	36034	1332.218045443	2
2	36101	1335.643811501	3
2	36146	1337.842839594	2
2	36203	1340.639881057	2
2	36233	1341.18689214	3
2	36406	1346.023713096	2
2	36543	1353.357552413	2
2	36611	1357.457131867	2
2	36752	1363.129924713	3
2	37083	1380.07464058	2
2	37400	1391.310837751	3
2	37422	1391.906238409	3
2	37466	1394.179312634	3
2	37542	1397.740496187	3
2	37730	1403.777160536	3
2	37944	1410.698635893	3
2	37998	1414.321018629	2
2	38065	1417.453538866	3
2	38347	1427.764396822	3
2	38490	1435.607568065	3
2	38791	1442.703641232	3
2	39358	1448.08502051	2
2	39497	1452.851196095	3
2	39595	1459.82383368	2
2	39654	1461.01200548	3
2	39975	1475.082274816	3
2	40018	1476.862118735	2
2	40045	1478.55397705	0
2	40362	1490.805478584	2
2	40471	1497.338128851	3
2	40573	1501.860206788	2
2	40767	1508.279956949	2
2	40847	1511.848049093	3
2	40956	1518.603695158	3
2	40988	1519.798601703	3
2	41536	1527.027484197	0
2	41590	1528.789735145	3
2	41777	1539.133077796	2
2	42023	1546.682908119	0
2	42259	1559.032277144	3
2	42883	1565.846540051	3
2	43246	1573.315549774	3
2	43273	1573.550240288	2
2	43281	1573.683236752	3
2	43347	1577.145255406	2
2	43375	1578.096843867	2
2	43441	1580.907744071	0
2	43650	1587.330860043	2
2	43834	1595.924733218	3
2	44163	1607.88440907	3
2	44350	1618.092230364	3
2	44616	1626.567524743	3
2	44719	1630.769231409	2
2	44829	1637.427516703	2
2	44896	1640.249532658	3
2	44984	1642.090051986	3
2	45084	1643.266586423	0
2	45330	1644.888964864	0
2	45446	1648.492616536	2
2	45480	1649.737745884	3
2	45950	1669.543604315	3
2	46382	1682.835288126	3
2	47081	1691.983905545	3
2	47095	1692.239496363	3
2	47133	1694.04660434	2
2	47202	1697.395873009	2
2	47228	1697.93021639	3
2	47253	1698.704857391	3
2	47488	1705.593918617	3
2	47522	1706.440643435	2
2	47647	1712.168067154	2
2	48008	1726.708986178	3
2	48236	1739.660013473	0
2	48482	1747.211755313	2
2	48523	1748.136043029	2
2	48634	1753.213364687	3
2	48962	1763.390869847	3
2	49178	1764.748393015	3
2	49262	1766.372895858	3
2	49328	1768.896251202	3
2	49346	1769.723512044	0
2	49560	1780.607815769	3
2	49676	1784.088280745	3
2	49964	1795.839322369	3
2	50023	1799.356051653	2
2	51011	1814.785387471	3
2	51041	1815.25441487	3
2	51089	1817.721186936	2
2	51329	1825.401956034	2
2	51359	1825.947276127	2
2	51397	1827.534433328	3
2	51503	1831.913381568	2
2	51582	1835.825806223	3
2	52015	1853.516395055	3
2	52056	1855.177874589	3
2	52239	1862.955463375	3
2	52294	1864.239257315	3
2	52583	1876.766181692	2
2	52629	1878.697063556	3
2	52878	1883.458207032	3
2	53164	1887.004789402	3
2	53206	1887.904632945	2
2	53231	1888.487419109	3
2	53341	1893.809084731	3
2	53411	1897.485774585	2
2	53824	1914.219145096	2
2	54146	1922.188860162	3
2	54764	1928.892024851	3
2	54931	1935.181830916	3
2	55020	1940.081589744	3
2	55133	1943.193284462	3
2	55389	1951.292201092	0
2	55407	1951.572265282	3
2	55410	1951.594593014	3
2	55426	1952.06352046	2
2	55481	1954.680529145	3
2	55907	1970.933052204	4
2	56070	1980.267082156	3
2	56416	1992.978533421	2
2	56553	2000.35440902	2
2	56568	2000.543308949	2
2	56777	2003.352908778	3
2	56783	2003.366275473	2
2	57022	2005.089093209	3
2	57061	2005.645971335	3
2	57232	2013.336325755	3
2	57332	2018.790127908	3
2	57732	2033.907204032	4
2	58591	2047.682248003	3
2	58769	2051.737092755	2
2	58817	2053.890210959	3
2	58951	2060.421730806	3
2	58982	2061.263979601	2
2	59326	2075.075451613	2
2	59379	2076.933058036	3
2	59418	2079.793244497	2
2	59821	2098.354015	3
2	60087	2107.96861265	0
2	60190	2113.281634821	3
2	60263	2117.232202219	2
2	60290	2118.33912	3
2	60687	2124.099520553	3
2	60827	2126.848044083	3
2	61065	2140.376071896	3
2	61074	2140.58164806	2
2	61143	2142.84080026	2
2	61370	2151.504576194	3
2	61772	2163.541979466	3
2	62234	2169.841227837	2
2	62317	2171.210066412	3
2	62362	2172.336257878	3
2	62408	2174.973695492	3
2	62703	2185.958337622	2
2	62805	2191.754631068	2
2	62816	2192.027679764	2
2	63049	2203.827015835	3
2	63183	2206.791548148	3
2	63323	2215.115397551	3
2	63674	2230.197253469	3
2	63789	2235.641818566	2
2	63798	2235.787089479	3
2	63830	2236.720402129	3
2	64366	2247.383244992	3
2	64468	2252.627792532	3
2	64501	2253.415735007	0
2	64504	2253.514369414	3
2	64733	2264.37187753	3
2	65707	2286.51058276	2
2	65844	2291.983252932	3
2	65929	2296.757982276	2
2	65970	2299.911832595	0
2	66230	2308.519042049	3
2	66295	2311.65084046	2
2	66356	2314.83917461	2
2	66386	2315.267295512	3
2	66417	2316.042100323	3
2	66869	2339.012771341	2
2	67114	2346.077964864	3
2	67134	2347.21242191	0
2	67713	2364.327950611	3
2	67757	2364.971053004	2
2	67840	2366.692923095	3
2	67851	2367.216663312	0
2	67920	2370.405413702	2
2	67932	2370.537532618	3
2	67984	2372.547333064	3
2	68400	2392.434938328	0
2	68716	2402.004214497	0
2	69328	2412.89027898	2
2	69596	2424.866875797	3
2	69678	2427.055717605	2
2	69747	2430.374914291	3
2	69778	2431.788433235	2
2	69832	2433.26970506	3
2	69841	2433.477774153	3
2	69923	2438.46806189	2
2	70542	2461.196971774	3
2	70595	2462.686605477	0
2	70779	2467.983785684	3
2	71077	2481.984871638	3
2	71512	2486.885463075	2
2	71529	2487.585944203	2
2	71569	2488.986358764	4
2	71691	2494.42582624	2
2	71774	2498.283941316	3
2	71867	2501.357087491	3
2	72285	2519.759323678	3
2	72529	2522.250202387	2
2	72609	2523.824863468	3
2	73174	2531.69438937	3
2	73193	2532.008456255	2
2	73374	2541.314487133	3
2	73432	2542.55114945	3
2	73556	2545.852564074	0
2	73633	2548.95355873	4
2	73870	2560.52661731	3
2	73950	2562.622899077	3
2	74287	2572.638931339	4
2	74486	2581.531658202	0
2	74489	2581.533089061	3
2	74494	2581.607194059	2
2	74710	2589.241700922	3
2	74957	2601.035621643	3
2	74981	2601.380402226	2
2	75420	2606.504873459	0
2	75463	2608.760790301	3
2	75657	2618.874888284	2
2	75922	2627.194821038	2
2	75950	2628.508845679	2
2	75976	2629.569711623	2
2	76091	2634.862431316	2
2	76273	2640.749333761	3
2	77053	2652.032441194	2
2	77165	2659.080626845	2
2	77287	2662.967963549	3
2	77348	2664.446443324	2
2	77410	2665.150003799	3
2	77939	2686.636917045	3
2	77950	2687.04457591	3
2	78133	2692.177517787	3
2	78140	2692.247607274	2
2	78233	2697.137548889	3
2	78527	2708.831677193	0
2	78697	2717.089396079	0
2	78867	2722.257932498	3
2	78923	2723.169259857	2
2	79170	2724.518355179	2
2	79271	2726.744979346	2
2	79768	2749.326522388	3
2	79925	2756.036007178	3
2	79969	2757.818262118	3
2	79996	2758.459784267	3
2	80288	2763.193605536	2
2	80759	2768.002817751	2
2	80931	2774.227520071	3
2	81065	2780.745500911	3
2	81183	2784.273262818	3
2	81311	2787.846779241	2
2	81337	2789.050640454	2
2	82002	2816.238579177	3
2	82048	2818.005214757	3
2	82073	2818.637240088	3
2	82187	2822.401307452	2
2	82213	2823.310315289	2
2	82373	2828.021217032	2
2	82407	2830.158485864	0
2	82888	2843.703286449	3
2	82988	2844.213338747	3
2	83090	2845.742019161	3
2	83140	2846.591319445	3
2	83542	2864.870036556	3
2	83651	2868.671870966	3
2	83786	2874.820065811	3
2	83885	2880.049316101	3
2	84503	2885.768264114	3
2	84701	2890.280298775	4
2	84792	2892.838261497	0
2	85080	2904.905173596	3
2	85125	2905.492565903	2
2	85172	2907.615598299	0
2	85189	2907.828992131	2
2	85405	2919.515404874	3
2	85569	2924.458706476	3
2	85708	2929.155656249	3
2	85908	2935.680160072	2
2	86044	2941.849155137	2
2	86324	2951.833119195	3
2	86387	2954.84954567	3
2	86544	2961.799674668	2
2	86953	2965.440120762	2
2	86966	2965.852146047	3
2	87132	2973.659985382	2
2	87282	2981.169574558	3
2	87485	2986.448396824	3
2	87600	2991.784129091	2
2	87634	2992.841105649	2
2	87679	2995.134702074	3
2	87756	2998.47509771	3
2	88675	3014.827507866	3
2	88972	3025.476093123	3
2	89004	3026.028872719	2
2	89058	3029.195153786	2
2	89203	3035.286807432	3
2	89483	3045.613348914	3
2	89542	3047.537292936	3
2	89575	3049.302017101	2
2	89721	3052.123357156	2
2	89786	3055.525502497	2
2	89928	3061.770276677	3
2	90295	3077.68014514	2
2	90817	3086.047515714	3
2	90854	3087.029528348	3
2	90876	3087.804869383	3
2	91064	3097.018614424	2
2	91084	3097.298245867	3
2	91291	3104.733840431	3
2	91485	3112.000721087	2
2	91499	3112.183493748	2
2	91533	3113.516457267	3
2	91626	3118.367546208	3
2	92416	3130.21630072	0
2	92748	3144.015492785	3
2	92901	3147.799359599	3
2	92907	3147.84524114	2
2	93120	3159.115484032	3
2	93197	3161.016843381	2
2	93213	3161.308538747	4
2	93329	3164.628445504	0
2	93395	3165.846182887	3
2	93471	3169.442521746	3
2	93518	3171.212810744	2
2	94167	3197.961814066	2
2	94186	3198.863267712	2
2	94815	3212.126613613	3
2	94843	3213.36693914	2
2	94947	3219.350196349	3
2	95044	3221.941491156	3
2	95086	3223.323472891	2
2	95199	3225.122999675	3
2	95213	3225.240457109	3
2	95370	3231.726390247	4
2	95410	3232.78271952	3
2	96406	3253.960493569	3
2	96485	3257.575766289	3
2	96795	3269.465805491	3
2	96966	3277.438366963	2
2	96998	3278.767785981	3
2	97110	3282.288089809	2
2	97141	3283.251767961	3
2	97306	3288.241536291	2
2	97338	3289.519581206	3
2	97381	3290.878846924	2
2	97575	3297.02090183	3
2	97991	3313.260792368	3
2	97997	3313.301024054	2
2	98654	3330.525505844	3
2	98899	3341.752422362	3
2	98953	3343.753010665	2
2	99028	3344.659742702	2
2	99036	3344.800465192	3
2	99117	3346.867979185	0
2	99197	3351.000088618	3
2	99328	3356.416531864	4
2	99619	3362.409214776	2
2	100304	3375.75613317	2
2	100331	3376.324805862	3
2	100592	3385.374319307	2
2	100859	3399.762648592	3
2	101110	3406.917353008	2
2	101141	3408.536479021	2
2	101305	3412.805675072	3
2	101335	3413.743923224	3
2	101386	3415.213192384	3
2	101406	3415.553383035	3
2	101435	3417.015012724	0
2	101724	3426.962671674	3
2	101987	3440.754173871	3
2	102464	3447.477053776	2
2	102646	3456.946924636	0
2	102714	3460.352596	2
2	102834	3464.094873834	3
2	102978	3468.744008676	2
2	103062	3471.83294903	2
2	103118	3474.463405337	3
2	103141	3475.034832325	2
2	103205	3478.14378577	2
2	103237	3479.273432831	3
2	104315	3503.095606395	2
2	104490	3508.218997239	3
2	104602	3512.336073503	3
2	104823	3523.648634041	0
2	104975	3526.917913483	3
2	104992	3527.579888334	3
2	105036	3529.530948115	3
2	105054	3530.096569073	2
2	105291	3539.049111976	3
2	105344	3540.662210488	2
2	105553	3546.403409079	2
2	106180	3564.384053422	2
2	106349	3570.553309454	2
2	106575	3581.454048059	0
2	106689	3584.765448168	2
2	106746	3585.629403864	3
2	106819	3588.661439696	3
2	106839	3589.773060942	0
2	106872	3590.594899695	2
2	107010	3596.559656024	3
2	107586	3604.862211442	3
2	107805	3608.107531737	2
2	108485	3638.090969069	2
2	108656	3644.325036161	3
2	108783	3647.120855345	3
2	108815	3648.308328609	3
2	108846	3649.189906369	3
2	108862	3649.52439471	2
2	108892	3650.243301227	3
2	109047	3654.135402882	3
2	109246	3663.434299456	0
2	109389	3666.971513378	2
2	109586	3677.349339958	2
2	110254	3694.719493102	2
2	110469	3703.974856074	3
2	110561	3705.253205427	3
2	110608	3705.996307002	3
2	110656	3708.159730297	3
2	110715	3711.071146672	2
3	1915	51.484156282	0.435794646
3	1983	55.620685687	0.296303063
3	2010	56.303146799	0.267385909
3	2074	59.588434772	0.70054916
3	2154	61.603977758	0.365563577
3	2187	62.142455014	0.339152366
3	2190	62.171978909	0.561988204
3	2353	66.932012681	0.425245923
3	2466	70.735952194	0.364793031
3	2610	80.083178043	0.374532587
3	3338	112.103151315	0.133756354
3	3448	119.078740369	0.299646336
3	3473	119.629619237	0.309858472
3	3562	120.716791508	0.488469791
3	3703	121.918412047	0.347763726
3	3735	122.704791804	0.355161576
3	3963	124.930154923	0.236406218
3	4150	126.731550082	0.352421195
3	4354	128.620272526	0.431092209
3	4536	137.349143736	0
3	5269	170.118382658	0.553515727
3	5386	176.061676923	0.549477812
3	5432	178.83674189	0.386921837
3	5509	181.335639097	0.524184377
3	5575	183.906834276	0
3	5587	183.967748503	0.302182287
3	5697	186.766853756	0.358198792
3	5735	187.794707148	0.784374572
3	5900	195.959829035	0.099174231
3	6366	220.631757026	0.131527033
3	6651	232.900521254	0.828729609
3	6720	237.164263801	0.384642146
3	6731	237.626396357	0
3	6978	242.433001383	0.352557127
3	7007	242.857938422	0.530552446
3	7484	248.062088004	0.486259937
3	7651	255.304752956	0.204220417
3	7768	262.227965497	0.289987489
3	8157	282.505298282	0.122237282
3	8335	289.129820766	0.282073131
3	8360	289.996545159	0.437398426
3	8547	300.603681186	0.233943971
3	8591	302.007026805	0.521888045
3	8670	304.986998142	0.488050805
3	8742	306.195418114	0.275384311
3	8927	318.038449688	0.430881881
3	8961	320.010123797	0.404314999
3	9304	335.513621183	0.531713443
3	9330	337.4158003	0.156473735
3	9449	342.846644508	0.294596428
3	10196	365.117347186	0.659325312
3	10482	369.603959752	0.045543265
3	10576	370.991580443	0.39950633
3	10624	374.180972683	0.145606617
3	10684	376.762791276	0.420668357
3	10988	390.826711754	0.44181846
3	11048	394.978125782	0.619189152
3	11193	403.088767399	0
3	11405	410.898107019	0.441525456
3	11579	421.356342868	0.531028881
3	11610	423.456115401	0.531859544
3	11622	423.831081441	0.313902811
3	11795	429.93180128	0.234901707
3	11987	441.090593718	0.220711707
3	12194	449.660422256	0.564539107
3	12257	452.486306991	0.253709272
3	12425	462.457919699	0.335236853
3	12668	473.114405411	0.119153613
3	12694	474.673857442	0.040801846
3	12735	476.939124264	0
3	13111	484.725227704	0
3	13529	490.354114227	0.355474879
3	13738	501.354733996	0.296119601
3	13769	503.275908748	0.26349838
3	13820	504.365204676	0.34028816
3	14365	531.782349145	0
3	14406	534.51167264	0.472232695
3	14467	536.547613038	0.675079887
3	14476	536.667288125	0.322255804
3	14508	538.449392467	0.782029346
3	14696	545.756269766	0.380939866
3	14845	553.398859786	0.147030107
3	14920	558.360915944	0.247325656
3	15162	568.045811062	0.129139648
3	15634	593.180351331	0.278905435
3	15643	593.437563362	0.454607813
3	15662	594.375731209	0.282398056
3	15722	596.439000222	0.623548217
3	15728	596.640513703	0.517300733
3	16249	605.74582001	0.820014941
3	16647	616.703041141	0.344109656
3	16748	622.121335143	0.50117581
3	16926	628.969631714	0.130928249
3	17310	649.639359783	0
3	17384	652.658042064	0.239998853
3	17409	653.853242489	0.446425813
3	17462	655.459983413	0.449775286
3	17500	657.896523078	0.517792319
3	17757	669.17687563	0.539855965
3	17902	676.48487835	0.286125592
3	17905	676.617239653	0.465580732
3	18278	695.511197878	0.355010135
3	18549	708.658359509	0.042567797
3	18624	711.270385382	0.336583906
3	18650	711.697523931	0.230043567
3	18662	711.910636606	0.298137662
3	18677	712.306573952	0.414070186
3	19485	729.160011417	0.533016151
3	19868	745.977063562	0.271715854
3	19887	747.155050098	0.101839889
3	19939	749.24875659	0.603999682
3	20287	766.637456344	0.5144717
3	20334	768.936637271	0.375135061
3	20378	770.174743589	0.817728512
3	20433	772.740679573	0.10163877
3	20519	778.195387447	0.3146954
3	20774	789.10911878	0.563537681
3	20849	792.950386485	0
3	21036	804.235887253	0.098595526
3	21286	817.271670554	0
3	21604	831.975065349	0.338532664
3	21659	835.195087865	0.42389773
3	21692	836.256462423	0.044129725
3	21721	836.545273709	0.283527887
3	21733	836.93905412	0.463622035
3	22221	845.229807509	0.241440429
3	22660	858.016265699	0.829133131
3	22758	862.619054945	0.353150901
3	23079	879.746551885	0.351740253
3	23160	883.005817146	0
3	23280	886.364433186	0
3	23408	894.355510126	0.416431219
3	23494	898.243764426	0.454106782
3	23500	898.373310172	0.324063488
3	23854	915.511357616	0.503735155
3	24103	923.92149118	0.552601105
3	24347	933.618104784	0.25895578
3	24379	934.720246328	0.275539592
3	24568	944.065363542	0.353390843
3	24624	944.803041723	0.268725104
3	24661	945.164529035	0.061552282
3	24885	956.910168006	0.042822814
3	25032	961.016648049	0.831586733
3	25759	968.962202312	0.574477746
3	25951	977.331447159	0.381641661
3	26096	984.057462336	0.225683847
3	26252	988.164371377	0.81544716
3	26371	995.11267193	0.364018344
3	26531	1002.467579302	0.153301007
3	26690	1007.183080245	0.320856253
3	26702	1007.447129361	0.284481673
3	26908	1019.785390935	0.10028617
3	26987	1021.445958562	0.293042467
3	27249	1031.485176833	0.293450914
3	27358	1038.612215201	0.384835076
3	27585	1044.934586883	0.133870502
3	27813	1055.584205193	0.529765809
3	27866	1058.64169499	0.286536982
3	27886	1058.921168702	0.264983087
3	28005	1063.41675439	0.102984249
3	28165	1068.648639305	0.549886091
3	28274	1074.68246724	0.148228665
3	28620	1083.443571169	0.295638946
3	29332	1095.798917852	0.8298682
3	29351	1096.03531044	0.485329347
3	29357	1096.138099346	0.232911856
3	29600	1105.479025373	0.651513201
3	29841	1118.557646291	0.217354638
3	29844	1118.665656307	0.354663873
3	29902	1120.824504785	0.279762687
3	29977	1123.652952881	0.507843946
3	30076	1125.413100494	0.059394426
3	30533	1146.936025206	0.292673422
3	30667	1153.207562204	0.570633811
3	30728	1156.516685663	0.554748931
3	30747	1157.416084728	0.488990395
3	30814	1160.313387235	0.530018905
3	31186	1173.769295441	0.277425205
3	31240	1176.057484757	0.189482714
3	31274	1178.764763917	0
3	31367	1181.488002876	0.354874849
3	31407	1182.490055818	0.231475346
3	31821	1200.69876604	0.453137412
3	32569	1209.302029282	0.714439197
3	32691	1212.638184439	0.786889489
3	32754	1215.966139951	0.490140922
3	32951	1224.775290892	0.060489939
3	32998	1225.271767251	0.289723937
3	33058	1227.586485376	0.122126325
3	33167	1232.569986198	0.398113953
3	33237	1236.857056087	0.095674574
3	33316	1240.459108049	0.323132311
3	33970	1269.772775968	0.308503628
3	34058	1274.249342554	0.676776903
3	34075	1274.521636278	0.262118239
3	34139	1277.991853419	0
3	34158	1279.085633414	0.223829422
3	34321	1283.654009106	0
3	34446	1285.989207139	0.500189432
3	34602	1294.980905678	0.282516186
3	34750	1301.931154013	0.307235065
3	34778	1302.436871355	0.449293745
3	35314	1321.737338102	0.821778682
3	36034	1332.218045443	0.521261547
3	36101	1335.643811501	0.747991333
3	36146	1337.842839594	0.254906581
3	36203	1340.639881057	0.154445382
3	36233	1341.18689214	0.141557115
3	36406	1346.023713096	0.271494935
3	36543	1353.357552413	0.229466019
3	36611	1357.457131867	0.18607867
3	36752	1363.129924713	0.474818989
3	37083	1380.07464058	0.382772417
3	37400	1391.310837751	0.298104327
3	37422	1391.906238409	0.28309256
3	37466	1394.179312634	0.780555086
3	37542	1397.740496187	0.297329131
3	37730	1403.777160536	0.119076157
3	37944	1410.698635893	0.367813071
3	37998	1414.321018629	0.043828356
3	38065	1417.453538866	0.359484354
3	38347	1427.764396822	0.371315242
3	38490	1435.607568065	0.683289687
3	38791	1442.703641232	0.340139968
3	39358	1448.08502051	0.464191678
3	39497	1452.851196095	0.644489543
3	39595	1459.82383368	0.128581632
3	39654	1461.01200548	0.122045768
3	39975	1475.082274816	0.488343256
3	40018	1476.862118735	0.101635673
3	40045	1478.55397705	0
3	40362	1490.805478584	0.044252002
3	40471	1497.338128851	0.712219989
3	40573	1501.860206788	0.209346993
3	40767	1508.279956949	0.182189975
3	40847	1511.848049093	0.821061244
3	40956	1518.603695158	0.573672354
3	40988	1519.798601703	0.416908059
3	41536	1527.027484197	0
3	41590	1528.789735145	0.359095778
3	41777	1539.133077796	0.29134463
3	42023	1546.682908119	0
3	42259	1559.032277144	0.135558374
3	42883	1565.846540051	0.404794566
3	43246	1573.315549774	0.535725254
3	43273	1573.550240288	0.060418785
3	43281	1573.683236752	0.282649223
3	43347	1577.145255406	0.614229643
3	43375	1578.096843867	0.355313001
3	43441	1580.907744071	0
3	43650	1587.330860043	0.268515303
3	43834	1595.924733218	0.491023061
3	44163	1607.88440907	0.627941957
3	44350	1618.092230364	0.477615546
3	44616	1626.567524743	0.485583675
3	44719	1630.769231409	0.36015063
3	44829	1637.427516703	0.536947561
3	44896	1640.249532658	0.344949381
3	44984	1642.090051986	0.701622184
3	45084	1643.266586423	0
3	45330	1644.888964864	0
3	45446	1648.492616536	0.296609588
3	45480	1649.737745884	0.21286736
3	45950	1669.543604315	0.351053991
3	46382	1682.835288126	0.271422145
3	47081	1691.983905545	0.332707278
3	47095	1692.239496363	0.44001588
3	47133	1694.04660434	0.563559465
3	47202	1697.395873009	0.217191143
3	47228	1697.93021639	0.608280359
3	47253	1698.704857391	0.285120209
3	47488	1705.593918617	0.472213403
3	47522	1706.440643435	0.395836943
3	47647	1712.168067154	0.095343948
3	48008	1726.708986178	0.268100192
3	48236	1739.660013473	0
3	48482	1747.211755313	0.390940095
3	48523	1748.136043029	0.043849328
3	48634	1753.213364687	0.772027345
3	48962	1763.390869847	0.1263395
3	49178	1764.748393015	0.532949332
3	49262	1766.372895858	0.346486612
3	49328	1768.896251202	0.775215514
3	49346	1769.723512044	0
3	49560	1780.607815769	0.386428784
3	49676	1784.088280745	0.620877608
3	49964	1795.839322369	0.335724858
3	50023	1799.356051653	0.249484079
3	51011	1814.785387471	0.854499022
3	51041	1815.25441487	0.52610382
3	51089	1817.721186936	0.546260716
3	51329	1825.401956034	0.152072081
3	51359	1825.947276127	0.216730044
3	51397	1827.534433328	0.282609161
3	51503	1831.913381568	0.195759801
3	51582	1835.825806223	0.790586825
3	52015	1853.516395055	0.268928026
3	52056	1855.177874589	0.577715841
3	52239	1862.955463375	0.211785623
3	52294	1864.239257315	0.802510974
3	52583	1876.766181692	0.344792039
3	52629	1878.697063556	0.356803793
3	52878	1883.458207032	0.453268357
3	53164	1887.004789402	0.805574785
3	53206	1887.904632945	0.254259226
3	53231	1888.487419109	0.377710391
3	53341	1893.809084731	0.321729878
3	53411	1897.485774585	0.322116614
3	53824	1914.219145096	0.10083656
3	54146	1922.188860162	0.507467558
3	54764	1928.892024851	0.36876883
3	54931	1935.181830916	0.77712231
3	55020	1940.081589744	0.279848581
3	55133	1943.193284462	0.447758924
3	55389	1951.292201092	0
3	55407	1951.572265282	0.717128023
3	55410	1951.594593014	0.572674814
3	55426	1952.06352046	0.528374873
3	55481	1954.680529145	0.125487877
3	55907	1970.933052204	0.601659986
3	56070	1980.267082156	0.831272458
3	56416	1992.978533421	0.452660518
3	56553	2000.35440902	0.111062737
3	56568	2000.543308949	0.275163274
3	56777	2003.352908778	0.393443008
3	56783	2003.366275473	0.059800282
3	57022	2005.089093209	0.335026364
3	57061	2005.645971335	0.28333588
3	57232	2013.336325755	0.60857841
3	57332	2018.790127908	0.130017342
3	57732	2033.907204032	0.608776758
3	58591	2047.682248003	0.287821957
3	58769	2051.737092755	0.358826569
3	58817	2053.890210959	0.701862229
3	58951	2060.421730806	0.478582475
3	58982	2061.263979601	0.287189871
3	59326	2075.075451613	0.74393741
3	59379	2076.933058036	0.276152282
3	59418	2079.793244497	0.242211335
3	59821	2098.354015	0.464980371
3	60087	2107.96861265	0
3	60190	2113.281634821	0.5698629
3	60263	2117.232202219	0.347440777
3	60290	2118.33912	0.344523113
3	60687	2124.099520553	0.446946132
3	60827	2126.848044083	0.593008293
3	61065	2140.376071896	0.589722025
3	61074	2140.58164806	0.544997021
3	61143	2142.84080026	0.261753204
3	61370	2151.504576194	0.33965068
3	61772	2163.541979466	0.393838243
3	62234	2169.841227837	0.505044914
3	62317	2171.210066412	0.459072212
3	62362	2172.336257878	0.496411726
3	62408	2174.973695492	0.132311447
3	62703	2185.958337622	0.398025373
3	62805	2191.754631068	0.144629747
3	62816	2192.027679764	0.620457791
3	63049	2203.827015835	0.129693916
3	63183	2206.791548148	0.345158052
3	63323	2215.115397551	0.75460833
3	63674	2230.197253469	0.451739835
3	63789	2235.641818566	0.539249561
3	63798	2235.787089479	0.356737809
3	63830	2236.720402129	0.289407705