version 2
run Kademlia-0-20130425-16:41:13-5620
attr configname Kademlia
attr datetime 20130425-16:41:13
attr experiment Kademlia
attr inifile E:/2011112922/WorkStations/OMNet41/OverSim-20101103/simulations/omnetpp.ini
attr iterationvars ""
attr iterationvars2 $repetition=0
attr measurement ""
attr network oversim.underlay.simpleunderlay.SimpleUnderlayNetwork
attr processid 5620
attr repetition 0
attr replication #0
attr resultdir results
attr runnumber 0
attr seedset 0

vector 8  SimpleUnderlayNetwork.globalObserver.globalStatistics  "Kademlia: Buckets Refreshed Per Task"  ETV
vector 9  SimpleUnderlayNetwork.globalObserver.globalStatistics  "GlobalNodeList: Number of nodes"  ETV
vector 10  SimpleUnderlayNetwork.globalObserver.globalStatistics  "KBRTestApp: One-way Hop Count"  ETV
vector 11  SimpleUnderlayNetwork.globalObserver.globalStatistics  "KBRTestApp: One-way Latency"  ETV
vector 12  SimpleUnderlayNetwork.globalObserver.globalStatistics  "LifetimeChurn: Time between deletes"  ETV
vector 13  SimpleUnderlayNetwork.globalObserver.globalStatistics  "LifetimeChurn: Session Time"  ETV
vector 14  SimpleUnderlayNetwork.globalObserver.globalStatistics  "LifetimeChurn: Time between creates"  ETV
8	2569	20.792298691	3
8	2610	20.833642135	0
8	3173	100.217829337	4
8	3340	101.778733113	3
8	3469	103.353770429	5
8	3680	104.26584857	0
8	3681	105.269526794	1
8	3713	105.777809654	0
8	3725	106.546385699	0
8	3726	107.671541818	0
8	3727	108.902014627	0
8	3728	111.03468034	1
8	3777	112.642139205	0
8	3778	112.944637194	0
8	3779	113.041400179	3
8	3954	115.477142725	1
8	3968	115.558462313	1
8	4061	116.388389242	0
8	4081	118.066048885	0
8	4114	119.546104809	0
8	4115	120.792298691	0
8	4116	120.833642135	0
8	4931	200.217829337	0
8	4932	201.778733113	0
8	4933	203.353770429	0
8	4958	204.26584857	0
8	4959	205.269526794	0
8	4960	205.777809654	0
8	4961	206.546385699	0
8	4962	207.671541818	0
8	4963	208.902014627	0
8	4989	211.03468034	0
8	4990	212.642139205	0
8	4991	212.944637194	0
8	4992	213.041400179	0
8	5041	215.477142725	0
8	5042	215.558462313	0
8	5043	216.388389242	0
8	5044	218.066048885	0
8	5045	219.546104809	0
8	5046	220.792298691	0
8	5047	220.833642135	0
8	5244	224.543172344	1
8	5864	300.217829337	0
8	5889	301.778733113	0
8	5914	303.353770429	0
8	5915	304.26584857	0
8	5916	305.269526794	0
8	5917	305.777809654	0
8	5918	306.546385699	0
8	5930	307.671541818	0
8	6011	311.03468034	0
8	6041	312.642139205	0
8	6042	312.944637194	0
8	6043	313.041400179	0
8	6044	315.477142725	0
8	6045	315.558462313	2
8	6154	316.388389242	0
8	6155	318.066048885	0
8	6170	319.546104809	0
8	6181	320.792298691	0
8	6182	320.833642135	0
8	6205	324.543172344	0
8	6666	400.217829337	0
8	6667	401.778733113	0
8	6692	403.353770429	0
8	6693	404.26584857	0
8	6694	405.269526794	0
8	6695	405.777809654	0
8	6696	406.546385699	0
8	6697	407.671541818	0
8	6746	411.03468034	0
8	6765	412.642139205	0
8	6772	412.944637194	0
8	6773	413.041400179	0
8	6798	415.477142725	0
8	6799	415.558462313	0
8	6800	416.388389242	0
8	6801	418.066048885	0
8	6848	419.546104809	0
8	6851	420.792298691	0
8	6852	420.833642135	0
8	6947	424.543172344	0
8	7558	500.217829337	0
8	7559	501.778733113	0
8	7577	503.353770429	0
8	7585	504.26584857	0
8	7586	505.269526794	0
8	7587	505.777809654	0
8	7588	506.546385699	0
8	7589	507.671541818	0
8	7590	511.03468034	0
8	7591	512.642139205	0
8	7592	512.944637194	0
8	7593	513.041400179	0
8	7618	515.477142725	0
8	7619	515.558462313	0
8	7620	516.388389242	0
8	7621	518.066048885	0
8	7622	519.546104809	0
8	7623	520.792298691	0
8	7624	520.833642135	0
8	7673	524.543172344	0
8	8447	600.217829337	0
8	8472	601.778733113	0
8	8497	603.353770429	0
8	8512	604.26584857	0
8	8547	605.269526794	0
8	8572	605.777809654	0
8	8573	606.546385699	0
8	8574	607.671541818	0
8	8575	611.03468034	0
8	8576	612.642139205	0
8	8577	612.944637194	0
8	8578	613.041400179	0
8	8579	615.477142725	0
8	8580	615.558462313	0
8	8592	616.388389242	0
8	8622	618.066048885	0
8	8631	619.546104809	0
8	8632	620.792298691	0
8	8657	624.543172344	0
8	8867	643.89960616	2
8	9275	653.143428676	0
8	9570	700.217829337	0
8	9571	701.778733113	0
8	9572	703.353770429	0
8	9573	704.26584857	0
8	9598	705.269526794	0
8	9599	705.777809654	0
8	9645	706.546385699	0
8	9673	707.671541818	0
8	9746	711.03468034	0
8	9795	712.642139205	0
8	9796	712.944637194	0
8	9797	713.041400179	0
8	9822	715.477142725	0
8	9823	715.558462313	0
8	9835	716.388389242	0
8	9873	718.066048885	0
8	9874	719.546104809	0
8	9875	720.792298691	0
8	9900	724.543172344	1
8	10111	743.89960616	0
8	10137	753.143428676	0
8	10577	800.217829337	0
8	10626	801.778733113	0
8	10627	803.353770429	0
8	10628	804.26584857	0
8	10629	805.269526794	0
8	10630	805.777809654	0
8	10631	806.546385699	0
8	10632	807.671541818	0
8	10633	811.03468034	0
8	10634	812.642139205	0
8	10635	812.944637194	0
8	10636	813.041400179	0
8	10661	815.477142725	0
8	10662	815.558462313	0
8	10663	816.388389242	0
8	10664	818.066048885	0
8	10665	819.546104809	0
8	10666	820.792298691	0
8	10739	824.543172344	0
8	10993	843.89960616	0
8	11054	853.143428676	0
8	11464	900.217829337	0
8	11465	901.778733113	0
8	11514	903.353770429	0
8	11515	904.26584857	0
8	11537	905.269526794	0
8	11562	905.777809654	0
8	11566	906.546385699	0
8	11567	907.671541818	0
8	11568	911.03468034	0
8	11569	912.642139205	0
8	11570	912.944637194	0
8	11571	913.041400179	0
8	11572	915.477142725	0
8	11573	915.558462313	0
8	11582	916.388389242	0
8	11623	918.066048885	0
8	11624	919.546104809	0
8	11625	920.792298691	0
8	11650	924.543172344	0
8	11868	933.882004955	0
8	11965	943.89960616	0
8	12039	953.143428676	0
8	12419	1000.217829337	0
8	12426	1001.778733113	0
8	12427	1003.353770429	0
8	12428	1004.26584857	0
8	12429	1005.269526794	0
8	12430	1005.777809654	0
8	12439	1006.546385699	0
8	12456	1007.671541818	0
8	12457	1011.03468034	0
8	12458	1012.642139205	0
8	12459	1012.944637194	0
8	12460	1013.041400179	0
8	12490	1015.477142725	0
8	12491	1015.558462313	0
8	12559	1016.388389242	0
8	12593	1018.066048885	2
8	12694	1019.546104809	0
8	12719	1020.792298691	0
8	12744	1024.543172344	0
8	12818	1033.882004955	0
8	12910	1043.89960616	0
8	12941	1053.143428676	0
8	13380	1100.217829337	0
8	13381	1101.778733113	0
8	13382	1103.353770429	0
8	13383	1104.26584857	1
8	13418	1105.269526794	0
8	13427	1105.777809654	0
8	13450	1106.546385699	0
8	13451	1107.671541818	1
8	13494	1111.03468034	0
8	13519	1112.642139205	1
8	13536	1112.944637194	2
8	13558	1113.041400179	1
8	13712	1115.477142725	0
8	13713	1115.558462313	0
8	13714	1116.388389242	0
8	13715	1118.066048885	0
8	13716	1119.546104809	0
8	13741	1124.543172344	0
8	13838	1133.882004955	0
8	13965	1143.89960616	0
8	14101	1153.143428676	0
8	14480	1200.217829337	1
8	14542	1201.778733113	1
8	14609	1203.353770429	1
8	14625	1204.26584857	0
8	14653	1205.269526794	2
8	14740	1205.777809654	0
8	14763	1206.546385699	0
8	14764	1207.671541818	0
8	14789	1211.03468034	0
8	14833	1212.642139205	0
8	14834	1212.944637194	0
8	14835	1213.041400179	2
8	14914	1215.477142725	0
8	14915	1215.558462313	0
8	14916	1216.388389242	0
8	14917	1218.066048885	0
8	14918	1219.546104809	0
8	14919	1224.543172344	0
8	14941	1233.882004955	0
8	15060	1243.89960616	0
8	15110	1253.143428676	0
8	15510	1300.217829337	0
8	15511	1301.778733113	0
8	15512	1303.353770429	0
8	15513	1304.26584857	0
8	15533	1305.269526794	0
8	15539	1305.777809654	0
8	15540	1306.546385699	0
8	15589	1307.671541818	0
8	15633	1311.03468034	0
8	15658	1312.642139205	0
8	15681	1312.944637194	0
8	15684	1313.041400179	0
8	15709	1315.477142725	0
8	15710	1315.558462313	0
8	15735	1316.388389242	0
8	15736	1318.066048885	0
8	15737	1319.546104809	0
8	15770	1324.543172344	1
8	15894	1333.882004955	0
8	15916	1343.89960616	0
8	15990	1353.143428676	0
8	16385	1400.217829337	0
8	16386	1401.778733113	0
8	16411	1403.353770429	0
8	16412	1404.26584857	0
8	16413	1405.269526794	0
8	16414	1405.777809654	0
8	16415	1406.546385699	0
8	16416	1407.671541818	0
8	16441	1411.03468034	0
8	16487	1412.642139205	0
8	16491	1412.944637194	0
8	16492	1413.041400179	0
8	16512	1415.477142725	0
8	16513	1415.558462313	1
8	16556	1416.388389242	1
8	16623	1418.066048885	0
8	16624	1419.546104809	0
8	16682	1424.543172344	0
8	16770	1433.882004955	0
8	16906	1443.89960616	0
8	16908	1453.143428676	0
8	17325	1500.217829337	0
8	17363	1501.778733113	0
8	17378	1503.353770429	0
8	17384	1504.26584857	0
8	17385	1505.269526794	0
8	17386	1505.777809654	0
8	17387	1506.546385699	0
8	17388	1507.671541818	0
8	17389	1511.03468034	0
8	17414	1512.642139205	0
8	17415	1512.944637194	0
8	17416	1513.041400179	0
8	17417	1515.477142725	0
8	17418	1515.558462313	0
8	17419	1516.388389242	0
8	17444	1518.066048885	0
8	17445	1519.546104809	1
8	17512	1524.543172344	0
8	17703	1533.882004955	0
8	17777	1535.716618931	0
8	17851	1543.89960616	0
8	17901	1553.143428676	0
8	18199	1561.272765659	0
8	18550	1600.217829337	0
8	18578	1601.778733113	0
8	18579	1603.353770429	0
8	18580	1604.26584857	0
8	18581	1605.269526794	0
8	18582	1605.777809654	0
8	18601	1606.546385699	0
8	18608	1607.671541818	1
8	18675	1611.03468034	0
8	18676	1612.642139205	0
8	18677	1612.944637194	0
8	18678	1613.041400179	0
8	18727	1615.477142725	0
8	18728	1615.558462313	0
8	18729	1616.388389242	1
8	18772	1618.066048885	0
8	18816	1619.546104809	0
8	18908	1624.543172344	0
8	19005	1633.882004955	0
8	19006	1635.716618931	0
8	19007	1643.89960616	0
8	19093	1653.143428676	1
8	19184	1661.272765659	0
8	19560	1700.217829337	0
8	19561	1701.778733113	0
8	19562	1703.353770429	0
8	19563	1704.26584857	0
8	19583	1705.269526794	0
8	19584	1705.777809654	0
8	19585	1706.546385699	0
8	19586	1707.671541818	0
8	19611	1711.03468034	0
8	19612	1712.642139205	0
8	19624	1712.944637194	0
8	19630	1713.041400179	0
8	19634	1715.477142725	0
8	19635	1715.558462313	0
8	19636	1716.388389242	0
8	19661	1718.066048885	0
8	19662	1719.546104809	0
8	19711	1724.543172344	0
8	19803	1733.882004955	0
8	19804	1735.716618931	0
8	20012	1753.143428676	0
8	20104	1761.272765659	0
8	20571	1800.217829337	0
8	20574	1801.778733113	0
8	20581	1803.353770429	0
8	20606	1804.26584857	0
8	20607	1805.269526794	0
8	20608	1805.777809654	0
8	20609	1806.546385699	0
8	20610	1807.671541818	0
8	20636	1811.03468034	0
8	20661	1812.642139205	0
8	20662	1812.944637194	0
8	20663	1813.041400179	0
8	20664	1815.477142725	0
8	20665	1816.388389242	0
8	20666	1818.066048885	0
8	20667	1819.546104809	0
8	20692	1824.543172344	1
8	20778	1833.882004955	0
8	20779	1835.716618931	0
8	20985	1853.143428676	0
8	21109	1861.272765659	0
8	21275	1900.217829337	0
8	21276	1901.778733113	0
8	21277	1903.353770429	0
8	21278	1904.26584857	0
8	21298	1905.269526794	0
8	21336	1905.777809654	0
8	21367	1906.546385699	0
8	21384	1907.671541818	0
8	21428	1911.03468034	0
8	21429	1912.642139205	0
8	21438	1912.944637194	0
8	21450	1913.041400179	0
8	21488	1915.477142725	0
8	21516	1916.388389242	0
8	21520	1918.066048885	0
8	21545	1919.546104809	0
8	21570	1924.543172344	0
8	21590	1933.882004955	1
8	21650	1935.716618931	0
8	21757	1953.143428676	0
8	21858	1961.272765659	0
8	22153	2000.217829337	0
8	22154	2001.778733113	0
8	22155	2003.353770429	0
8	22156	2004.26584857	0
8	22176	2005.269526794	0
8	22182	2005.777809654	0
8	22183	2006.546385699	0
8	22184	2007.671541818	0
8	22185	2011.03468034	0
8	22210	2012.642139205	0
8	22211	2012.944637194	0
8	22212	2013.041400179	0
8	22261	2015.477142725	0
8	22262	2016.388389242	0
8	22306	2018.066048885	0
8	22307	2019.546104809	0
8	22375	2024.543172344	0
8	22510	2033.882004955	0
8	22511	2035.716618931	0
8	22629	2053.143428676	0
8	22630	2061.272765659	0
8	23116	2100.217829337	0
8	23117	2101.778733113	0
8	23118	2103.353770429	0
8	23119	2104.26584857	0
8	23139	2105.269526794	0
8	23140	2105.777809654	0
8	23159	2106.546385699	0
8	23214	2111.03468034	1
8	23281	2112.642139205	0
8	23282	2112.944637194	0
8	23283	2113.041400179	0
8	23284	2115.477142725	0
8	23285	2116.388389242	0
8	23286	2118.066048885	1
8	23300	2119.546104809	0
8	23325	2124.543172344	0
8	23375	2133.882004955	0
8	23419	2135.716618931	0
8	23566	2153.143428676	0
8	23639	2161.272765659	0
8	23878	2200.217829337	0
8	23909	2201.778733113	0
8	23947	2203.353770429	0
8	23948	2204.26584857	1
8	23962	2205.269526794	0
8	23968	2205.777809654	0
8	23991	2206.546385699	0
8	24165	2211.03468034	0
8	24195	2212.642139205	0
8	24232	2212.944637194	3
8	24244	2213.041400179	1
8	24349	2213.721951191	0
8	24442	2215.477142725	0
8	24443	2216.388389242	0
8	24487	2218.066048885	0
8	24488	2219.546104809	0
8	24489	2224.543172344	0
8	24582	2233.882004955	0
8	24583	2235.716618931	0
8	24623	2253.143428676	0
8	24686	2261.272765659	0
8	25049	2300.217829337	0
8	25050	2301.778733113	2
8	25135	2303.353770429	2
8	25162	2304.26584857	0
8	25210	2305.269526794	1
8	25269	2305.777809654	0
8	25299	2306.546385699	1
8	25344	2311.03468034	0
8	25345	2312.642139205	1
8	25362	2312.944637194	0
8	25363	2313.041400179	2
8	25416	2313.721951191	0
8	25475	2315.477142725	1
8	25518	2316.388389242	0
8	25519	2318.066048885	0
8	25568	2319.546104809	0
8	25612	2324.543172344	0
8	25747	2333.882004955	0
8	25767	2335.716618931	0
8	25896	2353.143428676	0
8	25922	2361.272765659	0
8	26242	2400.217829337	0
8	26251	2401.778733113	0
8	26276	2403.353770429	0
8	26277	2404.26584857	0
8	26302	2405.269526794	0
8	26303	2405.777809654	0
8	26328	2406.546385699	0
8	26329	2411.03468034	0
8	26354	2412.642139205	0
8	26355	2412.944637194	0
8	26356	2413.041400179	0
8	26367	2413.721951191	0
8	26382	2415.477142725	0
8	26407	2416.388389242	0
8	26427	2418.066048885	0
8	26447	2419.546104809	0
8	26448	2424.543172344	2
8	26548	2433.882004955	0
8	26549	2435.716618931	0
8	26741	2453.143428676	0
8	26891	2461.272765659	0
8	27035	2465.457190814	0
8	27278	2500.217829337	0
8	27303	2501.778733113	0
8	27330	2503.353770429	0
8	27331	2504.26584857	0
8	27332	2505.269526794	0
8	27333	2505.777809654	1
8	27384	2506.546385699	0
8	27444	2511.03468034	0
8	27464	2512.642139205	1
8	27486	2512.944637194	0
8	27502	2513.041400179	0
8	27528	2513.721951191	0
8	27579	2515.477142725	0
8	27580	2516.388389242	0
8	27603	2518.066048885	0
8	27606	2519.546104809	0
8	27631	2524.543172344	0
8	27704	2533.882004955	0
8	27729	2535.716618931	2
8	27954	2553.143428676	0
8	28003	2561.272765659	0
8	28042	2565.457190814	0
8	28374	2600.217829337	0
8	28375	2601.778733113	0
8	28376	2603.353770429	0
8	28401	2604.26584857	0
8	28402	2605.269526794	0
8	28403	2605.777809654	0
8	28423	2606.546385699	0
8	28448	2611.03468034	0
8	28449	2612.642139205	0
8	28450	2612.944637194	0
8	28451	2613.041400179	0
8	28452	2613.721951191	0
8	28453	2615.477142725	0
8	28454	2616.388389242	0
8	28455	2618.066048885	0
8	28456	2619.546104809	0
8	28505	2624.543172344	0
8	28621	2633.882004955	0
8	28670	2635.716618931	0
8	28817	2653.143428676	0
8	28880	2661.272765659	0
8	28881	2665.457190814	0
8	29186	2700.217829337	0
8	29211	2701.778733113	0
8	29236	2703.353770429	0
8	29237	2704.26584857	0
8	29238	2705.269526794	0
8	29239	2705.777809654	0
8	29240	2706.546385699	0
8	29303	2711.03468034	0
8	29304	2712.642139205	0
8	29305	2712.944637194	0
8	29306	2713.041400179	0
8	29307	2713.721951191	0
8	29332	2715.477142725	0
8	29357	2716.388389242	0
8	29358	2718.066048885	0
8	29359	2719.546104809	0
8	29373	2724.543172344	0
8	29452	2733.882004955	0
8	29501	2735.716618931	0
8	29647	2753.143428676	1
8	29744	2761.272765659	0
8	29769	2765.457190814	0
8	30087	2800.217829337	2
8	30172	2801.778733113	0
8	30173	2803.353770429	0
8	30201	2804.26584857	0
8	30218	2805.269526794	0
8	30219	2805.777809654	0
8	30220	2806.546385699	0
8	30269	2811.03468034	0
8	30316	2812.642139205	0
8	30319	2812.944637194	0
8	30320	2813.041400179	0
8	30321	2813.721951191	0
8	30322	2815.477142725	0
8	30323	2816.388389242	0
8	30346	2818.066048885	0
8	30349	2819.546104809	0
8	30393	2824.543172344	0
8	30461	2833.882004955	0
8	30481	2835.716618931	0
8	30593	2853.143428676	0
8	30677	2861.272765659	0
8	30697	2865.457190814	0
8	31091	2891.598956501	1
8	31219	2900.217829337	0
8	31230	2901.778733113	0
8	31255	2903.353770429	0
8	31256	2904.26584857	2
8	31307	2905.269526794	0
8	31317	2905.777809654	0
8	31361	2906.546385699	0
8	31362	2911.03468034	0
8	31387	2912.642139205	0
8	31393	2912.944637194	0
8	31400	2913.041400179	0
8	31409	2913.721951191	0
8	31458	2915.477142725	0
8	31483	2916.388389242	0
8	31532	2918.066048885	0
8	31557	2919.546104809	0
8	31558	2924.543172344	1
8	31690	2933.882004955	0
8	31691	2935.716618931	0
8	32021	2945.552977984	0
8	32052	2953.143428676	0
8	32072	2961.272765659	0
8	32121	2965.457190814	0
8	32439	2991.598956501	0
8	32475	3000.217829337	0
8	32476	3001.778733113	0
8	32501	3003.353770429	0
8	32502	3004.26584857	0
8	32503	3005.269526794	0
8	32504	3005.777809654	0
8	32505	3006.546385699	0
8	32506	3011.03468034	0
8	32531	3012.642139205	0
8	32532	3012.944637194	0
8	32533	3013.041400179	0
8	32548	3013.721951191	1
8	32629	3015.477142725	0
8	32630	3016.388389242	0
8	32631	3018.066048885	0
8	32632	3019.546104809	0
8	32705	3024.543172344	0
8	32816	3033.882004955	1
8	32881	3035.716618931	0
8	32973	3045.552977984	0
8	33063	3053.143428676	0
8	33115	3061.272765659	0
8	33140	3065.457190814	0
8	33339	3091.598956501	0
8	33504	3100.217829337	0
8	33553	3101.778733113	0
8	33578	3103.353770429	0
8	33598	3104.26584857	0
8	33599	3105.269526794	0
8	33600	3105.777809654	0
8	33601	3106.546385699	0
8	33626	3111.03468034	0
8	33627	3112.642139205	0
8	33628	3112.944637194	0
8	33629	3113.041400179	0
8	33630	3113.721951191	0
8	33655	3115.477142725	0
8	33680	3116.388389242	0
8	33681	3118.066048885	0
8	33682	3119.546104809	0
8	33707	3124.543172344	0
8	33732	3133.882004955	0
8	33755	3135.716618931	0
8	33854	3145.552977984	0
8	33928	3153.143428676	0
8	34082	3161.272765659	0
8	34155	3165.457190814	0
8	34330	3191.598956501	0
8	34375	3200.217829337	0
8	34424	3201.778733113	0
8	34425	3203.353770429	0
8	34426	3204.26584857	0
8	34427	3205.269526794	0
8	34428	3205.777809654	0
8	34429	3206.546385699	0
8	34430	3211.03468034	0
8	34450	3212.642139205	0
8	34451	3212.944637194	0
8	34452	3213.041400179	0
8	34453	3213.721951191	0
8	34454	3215.477142725	0
8	34479	3216.388389242	0
8	34526	3218.066048885	0
8	34529	3219.546104809	0
8	34619	3224.543172344	0
8	34785	3233.882004955	0
8	34786	3235.716618931	0
8	34835	3245.552977984	0
8	34899	3253.143428676	0
8	34967	3261.272765659	0
8	34968	3265.457190814	0
8	35294	3291.598956501	0
8	35344	3300.217829337	0
8	35345	3301.778733113	0
8	35387	3303.353770429	0
8	35390	3304.26584857	0
8	35391	3305.269526794	0
8	35392	3305.777809654	0
8	35393	3306.546385699	0
8	35418	3311.03468034	0
8	35419	3312.642139205	0
8	35420	3312.944637194	3
8	35430	3313.041400179	1
8	35510	3313.721951191	0
8	35589	3315.477142725	0
8	35609	3316.388389242	0
8	35620	3318.066048885	0
8	35635	3319.546104809	0
8	35660	3324.543172344	0
8	35794	3333.882004955	0
8	35820	3335.716618931	0
8	35965	3345.552977984	0
8	36015	3353.143428676	0
8	36107	3361.272765659	1
8	36174	3365.457190814	0
8	36369	3391.598956501	0
8	36529	3400.217829337	0
8	36530	3401.778733113	2
8	36615	3403.353770429	4
8	36686	3404.26584857	0
8	36773	3405.269526794	1
8	36808	3405.777809654	0
8	36817	3406.546385699	1
8	36906	3411.03468034	0
8	36913	3412.642139205	0
8	36914	3412.944637194	0
8	36915	3413.041400179	2
8	36942	3413.721951191	0
8	36995	3415.477142725	1
8	37038	3416.388389242	1
8	37129	3418.066048885	0
8	37136	3419.546104809	0
8	37137	3424.543172344	0
8	37216	3433.882004955	0
8	37217	3435.716618931	0
8	37320	3445.552977984	0
8	37442	3453.143428676	0
8	37486	3461.272765659	0
8	37559	3465.457190814	1
8	37765	3491.598956501	0
8	37869	3500.217829337	0
8	37870	3501.778733113	0
8	37871	3503.353770429	0
8	37872	3504.26584857	0
8	37895	3505.269526794	0
8	37922	3505.777809654	0
8	37934	3506.546385699	0
8	37973	3511.03468034	0
8	38022	3512.642139205	0
8	38023	3512.944637194	0
8	38024	3513.041400179	0
8	38025	3513.721951191	0
8	38050	3515.477142725	0
8	38070	3516.388389242	0
8	38084	3518.066048885	0
8	38096	3519.546104809	0
8	38097	3524.543172344	2
8	38262	3533.882004955	0
8	38287	3535.716618931	0
8	38384	3545.552977984	0
8	38410	3553.143428676	0
8	38497	3561.272765659	0
8	38584	3565.457190814	0
8	38815	3591.598956501	0
8	38817	3600.217829337	0
8	38818	3601.778733113	0
8	38891	3603.353770429	0
8	38892	3604.26584857	0
8	38893	3605.269526794	0
8	38894	3605.777809654	2
8	38995	3606.546385699	0
8	39076	3611.03468034	0
8	39077	3612.642139205	2
8	39108	3612.944637194	0
8	39122	3613.041400179	0
8	39164	3613.721951191	0
8	39165	3615.477142725	0
8	39190	3616.388389242	0
8	39215	3618.066048885	0
8	39264	3619.546104809	0
8	39308	3624.543172344	0
8	39357	3633.882004955	0
8	39382	3635.716618931	2
8	39547	3645.552977984	0
8	39584	3653.143428676	0
8	39729	3661.272765659	0
8	39754	3665.457190814	0
8	40014	3691.598956501	0
8	40040	3700.217829337	0
8	40060	3701.778733113	0
8	40061	3703.353770429	0
8	40086	3704.26584857	0
8	40087	3705.269526794	0
8	40088	3705.777809654	0
8	40118	3706.546385699	0
8	40162	3711.03468034	0
8	40187	3712.642139205	0
8	40188	3712.944637194	0
8	40189	3713.041400179	0
8	40190	3713.721951191	0
8	40215	3715.477142725	0
8	40216	3716.388389242	0
8	40217	3718.066048885	0
8	40229	3719.546104809	0
8	40267	3724.543172344	0
8	40340	3733.882004955	0
8	40365	3735.716618931	0
8	40577	3745.552977984	0
8	40579	3753.143428676	0
8	40671	3761.272765659	0
8	40720	3765.457190814	0
8	40913	3791.598956501	0
8	41031	3800.217829337	0
8	41075	3801.778733113	0
8	41095	3803.353770429	0
8	41096	3804.26584857	0
8	41097	3805.269526794	0
8	41098	3805.777809654	0
8	41099	3806.546385699	0
8	41173	3811.03468034	0
8	41174	3812.642139205	0
8	41175	3812.944637194	0
8	41176	3813.721951191	0
8	41177	3815.477142725	0
8	41178	3816.388389242	0
8	41179	3818.066048885	0
8	41204	3819.546104809	0
8	41253	3824.543172344	0
8	41302	3833.882004955	0
8	41327	3835.716618931	0
8	41376	3845.552977984	0
8	41416	3853.143428676	1
8	41617	3861.272765659	0
8	41685	3865.457190814	0
8	41892	3891.598956501	0
8	41918	3900.217829337	0
8	41919	3901.778733113	0
8	41920	3903.353770429	1
8	41934	3904.26584857	0
8	41971	3905.269526794	0
8	41972	3905.777809654	0
8	42001	3906.546385699	0
8	42026	3911.03468034	0
8	42051	3912.642139205	0
8	42076	3912.944637194	0
8	42099	3913.721951191	0
8	42172	3915.477142725	0
8	42175	3916.388389242	0
8	42192	3918.066048885	0
8	42241	3919.546104809	0
8	42274	3924.543172344	0
8	42323	3933.882004955	0
8	42343	3935.716618931	0
8	42440	3945.552977984	0
8	42452	3953.143428676	0
8	42611	3961.272765659	0
8	42636	3965.457190814	0
8	42874	3991.598956501	1
8	42963	4000.217829337	0
8	42964	4001.778733113	0
8	43013	4003.353770429	0
8	43014	4004.26584857	2
8	43054	4005.269526794	0
8	43079	4005.777809654	0
8	43123	4006.546385699	0
8	43172	4011.03468034	0
8	43173	4012.642139205	0
8	43174	4012.944637194	0
8	43175	4013.721951191	0
8	43176	4015.477142725	0
8	43177	4016.388389242	0
8	43197	4018.066048885	0
8	43198	4019.546104809	0
8	43247	4024.543172344	1
8	43417	4033.882004955	0
8	43428	4035.716618931	0
8	43501	4045.552977984	0
8	43589	4053.143428676	0
8	43692	4061.272765659	0
8	43693	4065.457190814	0
8	43962	4091.598956501	0
8	44036	4100.217829337	0
8	44061	4101.778733113	0
8	44062	4103.353770429	0
8	44063	4104.26584857	0
8	44064	4105.269526794	0
8	44065	4105.777809654	0
8	44066	4106.546385699	0
8	44091	4111.03468034	0
8	44116	4112.642139205	0
8	44117	4112.944637194	0
8	44118	4113.721951191	0
8	44119	4115.477142725	0
8	44179	4116.388389242	0
8	44183	4118.066048885	0
8	44184	4119.546104809	0
8	44228	4124.543172344	0
8	44269	4133.882004955	1
8	44313	4135.716618931	0
8	44466	4145.552977984	0
8	44758	4151.439698004	0
8	44765	4153.143428676	0
8	44790	4161.272765659	0
8	44863	4165.457190814	0
8	45033	4191.598956501	0
8	45113	4200.217829337	0
8	45181	4201.778733113	0
8	45182	4203.353770429	0
8	45183	4204.26584857	0
8	45213	4205.269526794	0
8	45230	4205.777809654	0
8	45258	4206.546385699	0
8	45283	4211.03468034	0
8	45284	4212.642139205	0
8	45285	4212.944637194	0
8	45310	4213.721951191	0
8	45311	4215.477142725	1
8	45378	4216.388389242	0
8	45385	4218.066048885	0
8	45386	4219.546104809	1
8	45429	4224.543172344	0
8	45497	4233.882004955	0
8	45546	4235.716618931	0
8	45633	4245.552977984	0
8	45707	4251.439698004	0
8	45708	4253.143428676	0
8	45763	4261.272765659	0
8	45852	4265.457190814	0
8	45995	4291.598956501	0
8	46117	4300.217829337	0
8	46118	4301.778733113	0
8	46143	4303.353770429	0
8	46144	4304.26584857	0
8	46188	4305.269526794	0
8	46194	4305.777809654	0
8	46214	4306.546385699	0
8	46263	4311.03468034	0
8	46288	4312.642139205	0
8	46289	4312.944637194	0
8	46290	4313.721951191	0
8	46291	4315.477142725	0
8	46325	4316.388389242	0
8	46326	4318.066048885	0
8	46327	4319.546104809	0
8	46376	4324.543172344	0
8	46449	4333.882004955	0
8	46498	4335.716618931	0
8	46571	4345.552977984	0
8	46645	4351.439698004	0
8	46646	4353.143428676	0
8	46647	4361.272765659	0
8	46734	4365.457190814	0
8	47019	4391.598956501	0
8	47069	4400.217829337	0
8	47108	4401.778733113	0
8	47120	4403.353770429	0
8	47134	4404.26584857	0
8	47159	4405.269526794	0
8	47160	4405.777809654	0
8	47161	4406.546385699	0
8	47162	4411.03468034	0
8	47187	4412.642139205	0
8	47188	4412.944637194	4
8	47279	4413.721951191	0
8	47382	4415.477142725	0
8	47383	4416.388389242	0
8	47384	4418.066048885	2
8	47411	4419.546104809	0
8	47485	4424.543172344	0
8	47584	4433.882004955	0
8	47600	4435.716618931	0
8	47802	4445.552977984	0
8	47809	4451.439698004	0
8	47824	4453.143428676	0
8	48100	4459.195019347	0
8	48130	4461.272765659	1
8	48173	4465.457190814	0
8	48444	4491.598956501	0
8	48529	4500.217829337	0
8	48565	4501.778733113	2
8	48700	4503.353770429	1
8	48722	4504.26584857	0
8	48764	4505.269526794	1
8	48799	4505.777809654	0
8	48808	4506.546385699	0
8	48833	4511.03468034	0
8	48858	4512.642139205	0
8	48859	4512.944637194	0
8	48860	4513.721951191	0
8	48885	4515.477142725	0
8	48886	4516.388389242	2
8	48971	4518.066048885	1
8	48992	4519.546104809	0
8	49039	4524.543172344	0
8	49189	4533.882004955	0
8	49204	4535.716618931	0
8	49301	4545.552977984	0
8	49338	4551.439698004	0
8	49390	4553.143428676	0
8	49415	4559.195019347	0
8	49464	4561.272765659	0
8	49537	4565.457190814	1
8	49768	4591.598956501	0
8	49867	4600.217829337	0
8	49892	4601.778733113	0
8	49904	4603.353770429	0
8	49908	4604.26584857	0
8	49909	4605.269526794	0
8	49910	4605.777809654	0
8	49911	4606.546385699	0
8	49974	4611.03468034	0
8	50005	4612.642139205	0
8	50006	4612.944637194	0
8	50007	4613.721951191	0
8	50008	4615.477142725	0
8	50033	4616.388389242	0
8	50053	4618.066048885	0
8	50078	4619.546104809	0
8	50079	4624.543172344	2
8	50254	4633.882004955	0
8	50279	4635.716618931	0
8	50318	4645.552977984	1
8	50408	4651.439698004	0
8	50409	4653.143428676	0
8	50530	4659.195019347	0
8	50603	4661.272765659	0
8	50604	4665.457190814	0
8	50829	4691.598956501	0
8	50933	4700.217829337	0
8	50934	4701.778733113	0
8	50935	4703.353770429	0
8	50936	4705.269526794	0
8	50937	4705.777809654	1
8	50975	4706.546385699	0
8	50981	4711.03468034	0
8	50982	4712.642139205	0
8	50997	4712.944637194	0
8	51014	4713.721951191	0
8	51087	4715.477142725	0
8	51088	4716.388389242	0
8	51125	4718.066048885	0
8	51128	4719.546104809	0
8	51175	4724.543172344	0
8	51298	4733.882004955	0
8	51299	4735.716618931	2
8	51480	4745.552977984	1
8	51572	4751.439698004	0
8	51621	4753.143428676	0
8	51646	4759.195019347	0
8	51671	4761.272765659	0
8	51672	4765.457190814	0
8	52013	4791.598956501	0
8	52015	4800.217829337	0
8	52059	4801.778733113	0
8	52084	4803.353770429	0
8	52085	4805.269526794	0
8	52086	4805.777809654	0
8	52087	4806.546385699	0
8	52142	4811.03468034	0
8	52167	4812.642139205	0
8	52168	4812.944637194	0
8	52169	4813.721951191	0
8	52170	4815.477142725	0
8	52171	4816.388389242	0
8	52172	4818.066048885	0
8	52197	4819.546104809	0
8	52228	4824.543172344	0
8	52322	4833.882004955	0
8	52377	4835.716618931	0
8	52490	4845.552977984	0
8	52535	4851.439698004	0
8	52579	4853.143428676	0
8	52604	4859.195019347	0
8	52605	4861.272765659	0
8	52606	4865.457190814	0
8	52963	4891.598956501	0
8	53139	4900.217829337	0
8	53164	4901.778733113	0
8	53189	4903.353770429	0
8	53214	4905.269526794	0
8	53215	4905.777809654	0
8	53223	4906.546385699	0
8	53286	4911.03468034	0
8	53287	4912.642139205	0
8	53288	4913.721951191	0
8	53289	4915.477142725	0
8	53290	4916.388389242	0
8	53315	4918.066048885	0
8	53316	4919.546104809	0
8	53351	4924.543172344	0
8	53438	4933.882004955	0
8	53439	4935.716618931	0
8	53584	4945.552977984	0
8	53634	4951.439698004	0
8	53635	4953.143428676	1
8	53702	4959.195019347	0
8	53703	4961.272765659	0
8	53742	4965.457190814	0
8	53963	4991.598956501	0
8	54037	5000.217829337	0
8	54038	5001.778733113	0
8	54120	5003.353770429	0
8	54126	5005.269526794	0
8	54127	5005.777809654	0
8	54149	5006.546385699	0
8	54201	5011.03468034	0
8	54202	5012.642139205	0
8	54203	5013.721951191	3
8	54293	5015.477142725	0
8	54296	5016.388389242	0
8	54353	5018.066048885	0
8	54354	5019.546104809	0
8	54355	5024.543172344	0
8	54429	5033.882004955	0
8	54448	5035.716618931	0
8	54575	5045.552977984	0
8	54621	5051.439698004	0
8	54622	5053.143428676	0
8	54706	5059.195019347	0
8	54734	5061.272765659	0
8	54754	5065.457190814	0
8	55018	5076.254011027	0
8	55144	5091.598956501	2
8	55309	5100.217829337	0
8	55324	5101.778733113	0
8	55330	5103.353770429	0
8	55331	5105.269526794	0
8	55332	5105.777809654	0
8	55333	5106.546385699	0
8	55334	5111.03468034	0
8	55383	5112.642139205	0
8	55384	5113.721951191	0
8	55385	5115.477142725	0
8	55386	5116.388389242	0
8	55451	5118.066048885	0
8	55474	5119.546104809	0
8	55506	5124.543172344	1
8	55738	5135.716618931	0
8	55787	5145.552977984	0
8	55813	5151.439698004	0
8	55814	5153.143428676	0
8	55839	5159.195019347	0
8	55864	5161.272765659	0
8	55932	5165.457190814	0
8	56005	5176.254011027	0
8	56306	5191.598956501	0
8	56437	5192.862575556	0
8	56511	5200.217829337	0
8	56512	5201.778733113	0
8	56527	5203.353770429	0
8	56528	5205.269526794	0
8	56529	5205.777809654	0
8	56536	5206.546385699	0
8	56561	5211.03468034	0
8	56562	5212.642139205	1
8	56605	5213.721951191	0
8	56606	5215.477142725	0
8	56607	5216.388389242	0
8	56608	5218.066048885	0
8	56652	5219.546104809	0
8	56677	5224.543172344	0
8	56745	5235.716618931	0
8	56806	5245.552977984	0
8	56985	5251.439698004	0
8	56991	5253.143428676	0
8	57064	5259.195019347	0
8	57065	5261.272765659	0