version 2
run MyConfig-0-20121017-16:08:18-5980
attr configname MyConfig
attr datetime 20121017-16:08:18
attr experiment MyConfig
attr inifile E:/2011112922/WorkStations/OMNet41/OverSim-20101103/simulations/omnetpp.ini
attr iterationvars ""
attr iterationvars2 $repetition=0
attr measurement ""
attr network oversim.underlay.simpleunderlay.SimpleUnderlayNetwork
attr processid 5980
attr repetition 0
attr replication #0
attr resultdir results
attr runnumber 0
attr seedset 0

vector 1  SimpleUnderlayNetwork.globalObserver.globalStatistics  "GlobalNodeList: Number of nodes"  ETV
1	12634	50	10
1	28350	100	10
1	44001	150	10
1	59974	200	10
1	75830	250	10
1	91095	300	10
1	106936	350	10
1	122519	400	10
1	138061	450	10
1	153574	500	10
1	169132	550	10
1	184787	600	10
1	200751	650	10
1	216471	700	10
1	231854	750	10
1	247539	800	10
1	263907	850	10
1	279367	900	10
1	295183	950	10
1	310615	1000	10
1	326073	1050	10
1	341811	1100	10
1	357515	1150	10
1	373128	1200	10
1	388980	1250	10
1	404629	1300	10
1	420856	1350	10
1	436448	1400	10
1	452095	1450	10
1	468394	1500	10
1	484253	1550	10
1	499940	1600	10
1	516013	1650	10
1	531445	1700	10
1	547462	1750	10
1	563063	1800	10
1	578613	1850	10
1	594147	1900	10
1	610342	1950	10
1	625738	2000	10
1	641246	2050	10
1	656575	2100	10
1	672000	2150	10
1	687428	2200	10
1	703240	2250	10
1	718869	2300	10
