version 2
run NewConfig-0-20130619-13:27:54-8628
attr configname NewConfig
attr datetime 20130619-13:27:54
attr experiment NewConfig
attr inifile E:/2011112922/workspace/omnetpp/OverSim-20101103/simulations/omnetpp.ini
attr iterationvars ""
attr iterationvars2 $repetition=0
attr measurement ""
attr network oversim.underlay.simpleunderlay.SimpleUnderlayNetwork
attr processid 8628
attr repetition 0
attr replication #0
attr resultdir results
attr runnumber 0
attr seedset 0

vector 3  SimpleUnderlayNetwork.globalObserver.globalStatistics  Fanjing:New::queryTime:  ETV
vector 4  SimpleUnderlayNetwork.globalObserver.globalStatistics  "Fanjing:New::joinTime: "  ETV
vector 5  SimpleUnderlayNetwork.globalObserver.globalStatistics  "Fanjing:New::QueryResponseTime: "  ETV
vector 6  SimpleUnderlayNetwork.globalObserver.globalStatistics  Fanjing:New::joinEvalTime:  ETV
vector 7  SimpleUnderlayNetwork.globalObserver.globalStatistics  "Fanjing:New::startJoiningTime: "  ETV
vector 8  SimpleUnderlayNetwork.globalObserver.globalStatistics  Fanjing:New::joinTime:  ETV
vector 9  SimpleUnderlayNetwork.globalObserver.globalStatistics  "Fanjing:New::joinSuccessTime: "  ETV
vector 10  SimpleUnderlayNetwork.globalObserver.globalStatistics  Fanjing:NEW:dataTimeStamp0  ETV
vector 11  SimpleUnderlayNetwork.globalObserver.globalStatistics  Fanjing:NEW:dataTimeStamp1  ETV
vector 12  SimpleUnderlayNetwork.globalObserver.globalStatistics  Fanjing:NEW:dataTimeStamp2  ETV
vector 13  SimpleUnderlayNetwork.globalObserver.globalStatistics  Fanjing:NEW::joinSuccessTime-joinEvalTime  ETV
vector 14  SimpleUnderlayNetwork.globalObserver.globalStatistics  Fanjing:NEW::joinSuccessTime-queryTime  ETV
vector 15  SimpleUnderlayNetwork.globalObserver.globalStatistics  Fanjing:NEW:maxdataTimeStamp  ETV
vector 16  SimpleUnderlayNetwork.globalObserver.globalStatistics  "GlobalNodeList: Number of nodes"  ETV
3	147	12.367472188	2
3	175	13.26224272	3
3	200	14.487066213	4
3	263	16.05888874	5
3	323	17.666442665	6
3	368	18.781235396	7
3	435	19.750549429	8
3	513	21.069079898	9
3	561	21.544894017	10
3	672	22.817338935	11
3	715	23.51849809	12
4	147	12.367472188	2
4	175	13.26224272	3
4	200	14.487066213	4
4	263	16.05888874	5
4	323	17.666442665	6
4	368	18.781235396	7
4	435	19.750549429	8
4	513	21.069079898	9
4	561	21.544894017	10
4	672	22.817338935	11
4	715	23.51849809	12
5	153	12.458736037	2
5	181	13.759440116	3
5	215	14.936762845	4
5	269	16.176252203	5
5	329	17.815374754	6
5	382	19.086786445	7
5	453	20.020403685	8
5	519	21.164435944	9
5	603	22.237451222	10
5	693	23.376021639	11
5	777	24.485776108	12
6	153	12.458736037	2
6	181	13.759440116	3
6	215	14.936762845	4
6	269	16.176252203	5
6	329	17.815374754	6
6	382	19.086786445	7
6	453	20.020403685	8
6	519	21.164435944	9
6	603	22.237451222	10
6	693	23.376021639	11
6	777	24.485776108	12
7	153	12.458736037	2
7	187	14.227256843	3
7	229	15.390351552	4
7	288	16.592884936	5
7	353	18.337413973	6
7	412	19.507473463	7
7	490	20.538267995	8
7	566	21.641142632	9
7	652	22.70762788	10
7	751	23.960506675	11
7	838	24.979717941	12
8	153	12.458736037	2
8	187	14.227256843	3
8	229	15.390351552	4
8	288	16.592884936	5
8	353	18.337413973	6
8	412	19.507473463	7
8	490	20.538267995	8
8	566	21.641142632	9
8	652	22.70762788	10
8	751	23.960506675	11
8	838	24.979717941	12
9	171	12.566045752	2
9	209	14.705321178	3
9	259	15.890517812	4
9	318	17.025974436	5
9	375	18.901171857	6
9	446	19.877554287	7
9	509	20.76466282	8
9	597	22.146796021	9
9	687	23.216685687	10
9	771	24.313612247	11
9	857	25.209335071	12
10	865	25.262727006	0.027508397
10	889	25.328215529	0.09299692
10	898	25.360026663	0.124808054
10	910	25.472716661	0.237498052
10	918	25.499404141	0.264185532
10	925	25.507944225	0.272725616
10	927	25.511416345	0.276197736
10	933	25.531794755	0.296576146
10	935	25.544496813	0.309278204
10	937	25.583742669	0.34852406
10	943	25.701500476	0.466281867
11	870	25.287324552	0.052105943
11	880	25.294655012	0.059436403
11	885	25.31024798	0.075029371
11	891	25.337584859	0.10236625
11	896	25.351430901	0.116212292
11	904	25.420908962	0.185690353
11	908	25.447093276	0.211874667
11	915	25.485265543	0.250046934
11	929	25.511862531	0.276643922
11	931	25.515242205	0.280023596
11	940	25.604621081	0.369402472
12	875	25.28895257	0.053733961
12	887	25.314282616	0.079064007
12	906	25.434470314	0.199251705
12	920	25.499859286	0.264640677
12	945	25.715093355	0.479874746
12	950	25.719164249	0.48394564
12	952	25.744722105	0.509503496
12	954	25.762310308	0.527091699
12	956	25.814318897	0.579100288
12	960	25.843517422	0.608298813
12	962	25.918974195	0.683755586
13	889	25.328215529	0.107309715
13	927	25.511416345	0.849722233
13	929	25.511862531	0.790767842
13	931	25.515242205	0.945881062
13	945	25.715093355	0.982360077
13	950	25.719164249	0.979234465
13	952	25.744722105	0.744259135
13	954	25.762310308	0.953754967
13	956	25.814318897	0.937590608
13	960	25.843517422	1.085797103
13	962	25.918974195	0.723558963
14	889	25.328215529	0.198573564
14	927	25.511416345	0.967085696
14	929	25.511862531	1.096318891
14	931	25.515242205	1.443078458
14	945	25.715093355	1.077716123
14	950	25.719164249	1.67179167
14	952	25.744722105	1.014113391
14	954	25.762310308	1.403451599
14	956	25.814318897	1.496273312
14	960	25.843517422	1.234729192
14	962	25.918974195	1.690836981
15	889	25.328215529	0.09299692
15	927	25.511416345	0.276197736
15	929	25.511862531	0.276643922
15	931	25.515242205	0.280023596
15	945	25.715093355	0.479874746
15	950	25.719164249	0.48394564
15	952	25.744722105	0.509503496
15	954	25.762310308	0.527091699
15	956	25.814318897	0.579100288
15	960	25.843517422	0.608298813
15	962	25.918974195	0.683755586
16	1019	50	12
16	1152	100	12
