version 2
run Nice20-0-20130425-16:43:36-2344
attr configname Nice20
attr datetime 20130425-16:43:36
attr experiment Nice20
attr inifile E:/2011112922/WorkStations/OMNet41/OverSim-20101103/simulations/omnetpp.ini
attr iterationvars ""
attr iterationvars2 $repetition=0
attr measurement ""
attr network oversim.underlay.simpleunderlay.SimpleUnderlayNetwork
attr processid 2344
attr repetition 0
attr replication #0
attr resultdir results
attr runnumber 0
attr seedset 0

vector 1  SimpleUnderlayNetwork.globalObserver.globalStatistics  "ParetoChurn: Session Time"  ETV
vector 2  SimpleUnderlayNetwork.globalObserver.globalStatistics  "ParetoChurn: Time between creates"  ETV
vector 3  SimpleUnderlayNetwork.globalObserver.globalStatistics  "GlobalNodeList: Number of nodes"  ETV
vector 4  SimpleUnderlayNetwork.globalObserver.globalStatistics  "ParetoChurn: Time between deletes"  ETV
vector 5  SimpleUnderlayNetwork.globalObserver.globalStatistics  Fanjing:Nice:dataTimeStamp  ETV
vector 6  SimpleUnderlayNetwork.globalObserver.globalStatistics  Fanjing:Nice:joinCostTime  ETV
1	9819	71.261956429	423.68611909048
1	38282	183.976024987	450.86121730187
1	39184	188.329244874	3.4722366782608
1	46215	212.994742536	111.44376709712
1	53828	240.052255351	615.33702932822
1	100152	403.387181249	150.75379541305
1	128966	507.427904581	6336.6905744939
1	145850	566.450073704	898.17250378606
1	160794	621.42420677	6612.5338476328
1	172535	669.623615317	897.61835343863
1	179288	697.312335076	5574.1538281336
1	190398	739.929342	3475.3221388927
2	9819	71.261956429	14.489338489
2	38282	183.976024987	112.714068558
2	39184	188.329244874	4.353219887
2	46215	212.994742536	24.665497662
2	53828	240.052255351	27.057512815
2	100152	403.387181249	163.334925898
2	128966	507.427904581	104.040723332
2	145850	566.450073704	59.022169123
2	160794	621.42420677	54.974133066
2	172535	669.623615317	48.199408547
2	179288	697.312335076	27.688719759
2	190398	739.929342	42.617006924
3	17385	100	22
3	29764	150	21
3	42685	200	23
3	56837	250	24
3	72181	300	24
3	86165	350	22
3	99152	400	22
3	113238	450	23
3	127228	500	22
3	141256	550	23
3	155288	600	23
3	167802	650	21
3	179979	700	23
3	193233	750	24
4	20887	113.051258925	113.051258925
4	39191	188.329244874	75.277985949
4	69846	292.300769572	103.971524698
4	75028	309.438509633	17.137740061
4	121798	479.948075519	170.509565886
4	138141	539.140976662	59.192901143
4	153923	594.45952827	55.318551608
4	154495	596.720931411	2.261403141
4	160316	619.837242288	23.116310877
5	24683	128.051258925	0.449988037
5	43678	203.329244874	0.483917178
5	74473	307.300769572	0.526928217
5	79528	324.438509633	0.419102138
5	126160	494.948075519	0.474670012
5	142576	554.140976662	0.579032692
5	157940	609.45952827	0.575106312
5	158679	611.720931411	0.505272743
5	164344	634.837242288	0.650981618
6	24683	128.051258925	0.156301552
6	43678	203.329244874	0.55322031999998
6	74473	307.300769572	0.245641562
6	79528	324.438509633	0.638504235
6	126160	494.948075519	1.029570495
6	142576	554.140976662	0.67156579800002
6	157940	609.45952827	0.383280976
6	158679	611.720931411	0.27371361500001
6	164344	634.837242288	0.90917955200001
