version 2
run NTree-0-20120530-14:16:42-5764
attr configname NTree
attr datetime 20120530-14:16:42
attr experiment NTree
attr inifile E:/2011112922/WorkStations/OMNet41/OverSim-20101103/simulations/omnetpp.ini
attr iterationvars ""
attr iterationvars2 $repetition=0
attr measurement ""
attr network oversim.underlay.simpleunderlay.SimpleUnderlayNetwork
attr processid 5764
attr repetition 0
attr replication #0
attr resultdir results
attr runnumber 0
attr seedset 0

vector 6  SimpleUnderlayNetwork.globalObserver.globalStatistics  "GlobalNodeList: Number of nodes"  ETV
vector 1  SimpleUnderlayNetwork.globalObserver.globalFunctions[0].function.probe  "neighbor-error free nodes"  ETV
vector 2  SimpleUnderlayNetwork.globalObserver.globalFunctions[0].function.probe  "average missing neighbors per node"  ETV
vector 3  SimpleUnderlayNetwork.globalObserver.globalFunctions[0].function.probe  "largest missing neighbors count"  ETV
vector 4  SimpleUnderlayNetwork.globalObserver.globalFunctions[0].function.probe  "average drift"  ETV
vector 7  SimpleUnderlayNetwork.globalObserver.globalStatistics  "LifetimeChurn: Time between deletes"  ETV
vector 8  SimpleUnderlayNetwork.globalObserver.globalStatistics  "LifetimeChurn: Session Time"  ETV
vector 9  SimpleUnderlayNetwork.globalObserver.globalStatistics  "LifetimeChurn: Time between creates"  ETV
1	88892	60	10
1	182136	120	10
1	272639	180	9
1	350061	240	9
1	428039	300	9
1	508682	360	9
1	577917	420	9
1	653753	480	9
1	733235	540	9
1	804833	600	8
1	882223	660	9
1	962932	720	9
1	1042426	780	8
1	1125029	840	9
1	1202273	900	9
1	1287406	960	9
1	1382704	1020	10
1	1469220	1080	10
1	1556798	1140	10
1	1660674	1200	10
1	1757230	1260	10
1	1852437	1320	10
1	1942171	1380	9
1	2036642	1440	10
1	2126902	1500	10
1	2229863	1560	11
1	2344955	1620	11
1	2444744	1680	11
1	2550054	1740	11
1	2665265	1800	10
1	2778712	1860	10
1	2890607	1920	11
1	3022788	1980	12
1	3138452	2040	12
1	3256013	2100	11
1	3357702	2160	10
1	3471919	2220	11
1	3580806	2280	11
1	3681426	2340	11
1	3778083	2400	9
1	3886390	2460	12
1	4022106	2520	12
1	4151752	2580	12
1	4278021	2640	12
1	4406432	2700	11
1	4520790	2760	12
1	4637932	2820	12
1	4759150	2880	12
1	4876898	2940	12
1	5011633	3000	12
1	5131135	3060	12
1	5256802	3120	12
1	5372317	3180	12
1	5510353	3240	12
1	5631431	3300	12
1	5749796	3360	12
1	5868947	3420	12
1	6002340	3480	10
1	6136223	3540	12
1	6257497	3600	12
1	6383669	3660	12
1	6512609	3720	11
1	6625020	3780	12
1	6746187	3840	11
1	6869372	3900	12
1	6989303	3960	12
1	7107312	4020	12
1	7230311	4080	12
1	7367661	4140	12
1	7505265	4200	12
1	7625606	4260	12
1	7758492	4320	12
1	7888864	4380	12
1	8011069	4440	12
1	8131700	4500	12
1	8255529	4560	11
1	8377551	4620	11
1	8478614	4680	11
1	8589290	4740	11
1	8695493	4800	11
1	8809353	4860	11
1	8905050	4920	10
1	8998990	4980	10
1	9085141	5040	8
1	9157582	5100	9
1	9229465	5160	9
1	9303769	5220	9
1	9378988	5280	9
1	9456592	5340	9
1	9537174	5400	10
1	9629126	5460	10
1	9716445	5520	9
1	9810249	5580	10
1	9906949	5640	9
1	9982684	5700	8
1	10050343	5760	9
1	10126236	5820	9
1	10209130	5880	9
1	10288710	5940	9
1	10366913	6000	10
1	10450118	6060	10
1	10538090	6120	10
1	10627367	6180	10
1	10732676	6240	11
1	10855617	6300	11
1	10959032	6360	11
1	11061950	6420	11
1	11170722	6480	11
1	11262495	6540	9
1	11365813	6600	10
1	11451128	6660	9
1	11557584	6720	11
1	11678020	6780	11
1	11785405	6840	11
1	11888335	6900	11
1	11988075	6960	9
1	12101803	7020	11
1	12197972	7080	11
1	12309464	7140	11
1	12420405	7200	9
1	12537735	7260	12
1	12667472	7320	12
1	12794104	7380	12
1	12928022	7440	12
1	13051655	7500	12
1	13173773	7560	12
1	13302514	7620	12
1	13419126	7680	12
1	13525493	7740	12
1	13656152	7800	11
1	13791016	7860	12
1	13920355	7920	12
1	14043721	7980	12
1	14189009	8040	12
1	14319088	8100	12
1	14439965	8160	11
1	14572035	8220	12
1	14699135	8280	11
1	14823443	8340	12
1	14955784	8400	12
1	15076190	8460	12
1	15214970	8520	12
1	15325614	8580	10
1	15442984	8640	10
1	15554965	8700	11
1	15669339	8760	12
1	15798599	8820	12
1	15928243	8880	12
1	16055067	8940	12
1	16178648	9000	11
1	16310985	9060	12
1	16444347	9120	12
1	16598319	9180	13
1	16743138	9240	10
1	16875792	9300	12
1	17000804	9360	12
1	17133940	9420	11
1	17269857	9480	11
1	17398386	9540	12
1	17529527	9600	12
1	17650907	9660	11
1	17783806	9720	12
1	17900175	9780	12
1	18020139	9840	12
1	18144597	9900	12
1	18260837	9960	11
1	18387335	10020	12
1	18511746	10080	11
1	18638322	10140	11
1	18770653	10200	12
1	18898617	10260	12
1	19031391	10320	12
1	19161740	10380	12
1	19292409	10440	12
1	19423494	10500	12
1	19550614	10560	12
1	19665132	10620	12
1	19789450	10680	12
1	19922888	10740	12
1	20045400	10800	11
1	20179613	10860	11
1	20319150	10920	11
1	20459053	10980	11
1	20579686	11040	12
1	20703374	11100	10
1	20806189	11160	11
1	20917064	11220	10
1	21042939	11280	12
1	21172284	11340	12
1	21284258	11400	10
1	21397357	11460	10
1	21504724	11520	11
1	21610740	11580	11
1	21727707	11640	11
1	21832969	11700	11
1	21932473	11760	11
1	22048306	11820	12
1	22168658	11880	12
1	22284160	11940	12
1	22435333	12000	11
1	22561181	12060	11
1	22688983	12120	12
1	22813231	12180	12
1	22934907	12240	12
1	23065307	12300	13
1	23206157	12360	13
1	23363032	12420	13
1	23502794	12480	12
1	23651868	12540	13
1	23802172	12600	12
1	23947387	12660	13
1	24094654	12720	13
1	24243193	12780	11
1	24386123	12840	12
1	24543909	12900	14
1	24707209	12960	14
1	24868354	13020	12
1	25041343	13080	13
1	25208056	13140	13
1	25378846	13200	14
1	25552468	13260	14
1	25721142	13320	14
1	25886513	13380	14
1	26049158	13440	13
1	26221648	13500	13
1	26393651	13560	13
1	26547715	13620	13
1	26693004	13680	14
1	26860805	13740	13
1	27034927	13800	14
1	27213933	13860	14
1	27391042	13920	14
1	27553544	13980	14
1	27722594	14040	14
1	27882245	14100	13
1	28025919	14160	13
1	28174073	14220	13
1	28313616	14280	13
1	28460983	14340	13
1	28609678	14400	12
1	28771671	14460	13
1	28911776	14520	12
1	29055630	14580	13
1	29188521	14640	12
1	29317081	14700	12
1	29432887	14760	12
1	29558008	14820	12
1	29679387	14880	10
1	29801043	14940	10
1	29917009	15000	11
1	30017390	15060	10
1	30121286	15120	10
1	30217908	15180	11
1	30316119	15240	11
1	30425575	15300	11
1	30540597	15360	11
1	30645545	15420	11
1	30751097	15480	11
1	30857260	15540	11
1	30968815	15600	11
1	31085729	15660	11
1	31202376	15720	11
1	31299396	15780	11
1	31410496	15840	11
1	31514080	15900	9
1	31616103	15960	11
1	31717031	16020	10
1	31808120	16080	10
1	31900010	16140	9
1	32000007	16200	10
1	32090851	16260	10
1	32182816	16320	10
1	32271816	16380	10
1	32362693	16440	10
1	32456743	16500	10
1	32549603	16560	10
1	32627243	16620	9
1	32710347	16680	9
1	32791633	16740	8
1	32871216	16800	9
1	32945878	16860	9
1	33022281	16920	9
1	33107311	16980	9
1	33187470	17040	9
1	33264478	17100	9
1	33348077	17160	9
1	33429784	17220	9
1	33501361	17280	9
1	33574006	17340	8
1	33635400	17400	8
1	33693535	17460	6
1	33750387	17520	7
1	33809237	17580	8
1	33875129	17640	7
1	33935501	17700	8
1	34000583	17760	8
1	34063694	17820	8
1	34126864	17880	8
1	34191382	17940	8
1	34251080	18000	8
1	34313399	18060	8
1	34373760	18120	7
1	34438562	18180	7
1	34498655	18240	8
1	34561719	18300	8
1	34630000	18360	8
1	34689807	18420	8
1	34754714	18480	8
1	34821666	18540	8
1	34889921	18600	8
1	34948968	18660	5
1	35015132	18720	8
1	35089277	18780	8
1	35152192	18840	8
1	35219344	18900	7
1	35275121	18960	7
1	35325682	19020	5
1	35376064	19080	7
1	35424014	19140	7
1	35473121	19200	6
1	35519580	19260	7
1	35580109	19320	8
1	35643154	19380	8
1	35707177	19440	8
1	35768863	19500	7
1	35836641	19560	8
1	35897236	19620	8
1	35967059	19680	8
1	36025762	19740	8
1	36084554	19800	8
1	36149582	19860	8
1	36208111	19920	8
1	36275451	19980	8
1	36338676	20040	8
1	36408540	20100	8
1	36478550	20160	8
1	36538800	20220	8
1	36601651	20280	8
1	36654964	20340	8
1	36721616	20400	7
1	36779188	20460	7
1	36831664	20520	7
1	36884642	20580	7
1	36932697	20640	7
1	36987490	20700	7
1	37048881	20760	8
1	37112125	20820	7
1	37175570	20880	8
1	37234623	20940	8
1	37290117	21000	8
1	37353684	21060	7
1	37418388	21120	8
1	37482160	21180	8
1	37549374	21240	8
1	37616924	21300	8
1	37690148	21360	8
1	37763728	21420	8
1	37832778	21480	8
1	37899797	21540	6
1	37972544	21600	8
1	38043342	21660	8
1	38111636	21720	8
1	38170634	21780	8
1	38234652	21840	8
1	38301049	21900	7
1	38365104	21960	7
1	38427092	22020	8
1	38498728	22080	9
1	38580783	22140	9
1	38663596	22200	8
1	38742159	22260	9
1	38825404	22320	9
1	38898241	22380	7
1	38966845	22440	9
1	39052622	22500	9
1	39135480	22560	8
1	39199266	22620	8
1	39261348	22680	8
1	39320390	22740	8
1	39390800	22800	8
1	39454130	22860	8
1	39519390	22920	8
1	39583984	22980	8
1	39652502	23040	8
1	39707414	23100	8
1	39767819	23160	8
1	39832635	23220	8
1	39891361	23280	8
1	39959472	23340	8
1	40024555	23400	8
1	40087479	23460	8
1	40147613	23520	8
1	40211186	23580	8
1	40270151	23640	8
1	40329302	23700	8
1	40390865	23760	8
1	40457563	23820	9
1	40540297	23880	9
1	40622469	23940	8
1	40699941	24000	9
1	40776505	24060	9
1	40856086	24120	9
1	40920484	24180	8
1	40977517	24240	8
1	41037334	24300	8
1	41093847	24360	8
1	41159841	24420	8
1	41220506	24480	8
1	41281773	24540	8
1	41349880	24600	8
1	41416573	24660	8
1	41479912	24720	8
1	41541550	24780	8
1	41599204	24840	7
1	41660412	24900	8
1	41721621	24960	8
1	41783873	25020	7
1	41845240	25080	8
1	41913958	25140	8
1	41982689	25200	8
1	42055440	25260	9
1	42133881	25320	9
1	42206961	25380	9
1	42289096	25440	9
1	42372192	25500	9
1	42449865	25560	9
1	42521857	25620	9
1	42593998	25680	8
1	42661857	25740	8
1	42730184	25800	9
1	42815599	25860	9
1	42895848	25920	8
1	42970366	25980	9
1	43034374	26040	7
1	43086777	26100	7
1	43132345	26160	7
1	43186015	26220	7
1	43230767	26280	7
1	43280317	26340	7
1	43329972	26400	7
1	43376693	26460	7
1	43431311	26520	7
1	43484807	26580	7
1	43534151	26640	7
1	43590735	26700	8
1	43652758	26760	8
1	43707140	26820	8
1	43782259	26880	9
1	43867114	26940	9
1	43939663	27000	9
1	44014932	27060	9
1	44093565	27120	9
1	44171986	27180	9
1	44245985	27240	9
1	44336286	27300	8
1	44409669	27360	9
1	44489538	27420	9
1	44572778	27480	9
1	44655480	27540	9
1	44740443	27600	9
1	44816999	27660	9
1	44886998	27720	9
1	44957114	27780	8
1	45026265	27840	9
1	45111071	27900	8
1	45195460	27960	9
1	45275989	28020	9
1	45357147	28080	9
1	45429603	28140	9
1	45504582	28200	9
1	45585084	28260	8
1	45644037	28320	8
1	45706674	28380	8
1	45773101	28440	8
1	45835735	28500	8
1	45896111	28560	8
1	45959440	28620	8
1	46025525	28680	8
1	46089115	28740	8
1	46162907	28800	8
1	46226838	28860	8
1	46286681	28920	8
1	46340759	28980	7
1	46393536	29040	6
1	46440037	29100	7
1	46491222	29160	7
1	46539629	29220	7
1	46589736	29280	7
1	46640439	29340	7
1	46700470	29400	7
1	46752525	29460	7
1	46810579	29520	7
1	46854850	29580	7
1	46902319	29640	7
1	46953153	29700	7
1	47001871	29760	7
1	47054981	29820	7
1	47104299	29880	7
1	47152089	29940	7
1	47199936	30000	7
1	47249828	30060	7
1	47304431	30120	7
1	47358395	30180	7
1	47409479	30240	7
1	47459797	30300	7
1	47515777	30360	7
1	47562628	30420	7
1	47613259	30480	7
1	47664694	30540	6
1	47713550	30600	7
1	47765872	30660	7
1	47819161	30720	7
1	47872583	30780	7
1	47918766	30840	7
1	47966626	30900	7
1	48010333	30960	7
1	48060918	31020	5
1	48102677	31080	6
1	48149892	31140	6
1	48192767	31200	7
1	48246425	31260	7
1	48294190	31320	7
1	48345207	31380	7
1	48395898	31440	7
1	48453398	31500	7
1	48502296	31560	7
1	48550111	31620	7
1	48600857	31680	7
1	48649272	31740	7
1	48697596	31800	7
1	48746582	31860	7
1	48796445	31920	6
1	48852684	31980	7
1	48904100	32040	7
1	48957215	32100	6
1	49001552	32160	6
1	49040114	32220	6
1	49078837	32280	6
1	49118424	32340	6
1	49153729	32400	6
1	49189814	32460	6
1	49227764	32520	6
1	49268364	32580	6
1	49304995	32640	6
1	49341083	32700	6
1	49381040	32760	6
1	49421734	32820	6
1	49462495	32880	6
1	49502874	32940	6
1	49541189	33000	6
1	49579734	33060	6
1	49622813	33120	5
1	49670406	33180	6
1	49735424	33240	8
1	49794834	33300	8
1	49852485	33360	8
1	49913634	33420	8
1	49965818	33480	7
1	50018541	33540	7
1	50067591	33600	7
1	50118069	33660	7
1	50162188	33720	7
1	50200235	33780	6
1	50238376	33840	6
1	50276646	33900	6
1	50316357	33960	6
1	50354083	34020	6
1	50388069	34080	6
1	50426854	34140	5
1	50456291	34200	5
1	50488063	34260	5
1	50513132	34320	5
1	50543419	34380	5
1	50573874	34440	5
1	50601120	34500	5
1	50627370	34560	5
1	50659773	34620	5
1	50687154	34680	5
1	50712917	34740	5
1	50740387	34800	5
1	50769140	34860	5
1	50796403	34920	5
1	50823634	34980	5
1	50851482	35040	5
1	50889250	35100	6
1	50926824	35160	6
1	50965998	35220	6
1	51008799	35280	6
1	51048545	35340	5
1	51091962	35400	6
1	51128904	35460	6
1	51167135	35520	6
1	51206396	35580	6
1	51245111	35640	6
1	51282778	35700	6
1	51329764	35760	7
1	51382185	35820	7
1	51426743	35880	7
1	51477848	35940	7
1	51527910	36000	7
1	51584712	36060	7
1	51638263	36120	7
1	51686720	36180	7
1	51734715	36240	7
1	51793161	36300	7
1	51840401	36360	7
1	51895703	36420	6
1	51948463	36480	7
1	51997940	36540	7
1	52051208	36600	7
1	52100811	36660	8
1	52164996	36720	8
1	52229716	36780	8
1	52293443	36840	8
1	52366493	36900	8
1	52427888	36960	8
1	52495066	37020	8
1	52554561	37080	8
1	52611986	37140	7
1	52663360	37200	7
1	52713695	37260	7
1	52767471	37320	6
1	52823904	37380	7
1	52880304	37440	7
1	52945117	37500	8
1	53010830	37560	8
1	53078096	37620	8
1	53139265	37680	7
1	53199826	37740	8
1	53258425	37800	8
1	53328713	37860	8
1	53392484	37920	8
1	53459914	37980	8
1	53525905	38040	8
1	53589415	38100	8
1	53650297	38160	8
1	53712160	38220	7
1	53771970	38280	8
1	53833264	38340	8
1	53898898	38400	8
1	53959459	38460	7
1	54018046	38520	7
1	54083678	38580	9
1	54168766	38640	9
1	54244452	38700	9
1	54330867	38760	9
1	54414889	38820	9
1	54496581	38880	9
1	54573250	38940	9
1	54652899	39000	7
1	54722947	39060	9
1	54794431	39120	9
1	54879331	39180	9
1	54964398	39240	9
1	55023305	39300	8
1	55084630	39360	8
1	55143993	39420	8
1	55204184	39480	8
1	55266649	39540	8
1	55327309	39600	8
1	55387051	39660	8
1	55454792	39720	8
1	55524049	39780	8
1	55593601	39840	7
1	55643969	39900	7
1	55692596	39960	7
1	55743498	40020	7
1	55793309	40080	7
1	55846683	40140	7
1	55899965	40200	7
1	55954393	40260	7
1	55998124	40320	7
1	56047919	40380	7
1	56101418	40440	7
1	56154505	40500	7
1	56204204	40560	7
1	56254560	40620	7
1	56304833	40680	8
1	56368639	40740	8
1	56428895	40800	8
1	56489682	40860	7
1	56548798	40920	8
1	56613602	40980	8
1	56684420	41040	9
1	56754514	41100	9
1	56816492	41160	7
1	56875009	41220	8
1	56940764	41280	7
1	57009193	41340	8
1	57083492	41400	9
1	57147801	41460	7
1	57206246	41520	7
1	57266169	41580	8
1	57330423	41640	8
1	57392139	41700	8
1	57455183	41760	8
1	57520632	41820	7
1	57591844	41880	8
1	57656937	41940	8
1	57729011	42000	8
1	57790032	42060	8
1	57859187	42120	8
1	57925887	42180	8
1	57985022	42240	8
1	58049890	42300	8
1	58110596	42360	8
1	58170198	42420	8
1	58235897	42480	8
1	58294584	42540	8
1	58351724	42600	8
1	58416060	42660	7
1	58481580	42720	8
1	58540483	42780	8
1	58607296	42840	8
1	58675640	42900	8
1	58741584	42960	8
1	58810073	43020	8
1	58876793	43080	8
1	58938109	43140	8
1	58999695	43200	8
1	59062065	43260	8
1	59119492	43320	8
1	59182071	43380	8
1	59246506	43440	8
1	59315097	43500	8
1	59382733	43560	8
1	59441531	43620	8
1	59502615	43680	8
1	59560638	43740	8
1	59618833	43800	8
1	59684286	43860	8
1	59747583	43920	10
1	59841711	43980	10
1	59950250	44040	11
1	60056461	44100	11
1	60160874	44160	11
1	60268270	44220	10
1	60385320	44280	11
1	60497551	44340	11
1	60597036	44400	11
1	60695786	44460	11
1	60799011	44520	10
1	60909513	44580	10
1	61033121	44640	10
1	61133001	44700	10
1	61200090	44760	8
1	61260039	44820	8
1	61329237	44880	9
1	61407836	44940	9
1	61487294	45000	9
1	61575991	45060	10
1	61666583	45120	10
1	61759907	45180	10
1	61861644	45240	10
1	61968042	45300	9
1	62069619	45360	10
1	62162317	45420	10
1	62245673	45480	10
1	62338432	45540	10
1	62429624	45600	9
1	62528714	45660	10
1	62619283	45720	10
1	62710995	45780	10
1	62802702	45840	10
1	62898850	45900	10
1	62986308	45960	9
1	63083296	46020	10
1	63179706	46080	10
1	63278735	46140	10
1	63370660	46200	10
1	63468882	46260	10
1	63558543	46320	10
1	63654203	46380	10
1	63742075	46440	10
1	63829905	46500	10
1	63935536	46560	9
1	64031819	46620	10
1	64117006	46680	10
1	64214632	46740	10
1	64310294	46800	10
1	64398826	46860	9
1	64502910	46920	10
1	64590188	46980	10
1	64672338	47040	10
1	64765584	47100	10
1	64866043	47160	10
1	64952887	47220	10
1	65046273	47280	10
1	65145350	47340	10
1	65230412	47400	9
1	65303988	47460	7
1	65387064	47520	9
1	65461554	47580	9
1	65540874	47640	9
1	65620830	47700	9
1	65698025	47760	9
1	65786057	47820	9
1	65870030	47880	9
1	65942042	47940	9
1	66019477	48000	9
1	66102251	48060	9
1	66179239	48120	8
1	66260446	48180	9
1	66339592	48240	9
1	66404846	48300	9
1	66483253	48360	9
1	66558962	48420	9
1	66635691	48480	7
1	66714717	48540	9
1	66793671	48600	9
1	66867946	48660	8
1	66931073	48720	8
1	66993965	48780	8
1	67052901	48840	8
1	67123173	48900	8
1	67184736	48960	8
1	67248866	49020	9
1	67339293	49080	10
1	67426381	49140	10
1	67521573	49200	10
1	67608206	49260	10
1	67709721	49320	10
1	67818095	49380	11
1	67925298	49440	11
1	68034232	49500	11
1	68147006	49560	11
1	68251511	49620	10
1	68369306	49680	11
1	68474197	49740	10
1	68562852	49800	10
1	68659495	49860	10
1	68758498	49920	10
1	68852013	49980	10
1	68944633	50040	9
1	69029518	50100	9
1	69113509	50160	8
1	69196560	50220	9
1	69274286	50280	8
1	69356924	50340	9
1	69439782	50400	9
1	69519307	50460	9
1	69594128	50520	8
1	69670959	50580	9
1	69746428	50640	9
1	69816503	50700	9
1	69887685	50760	9
1	69964942	50820	9
1	70043528	50880	9
1	70122662	50940	9
1	70202176	51000	9
1	70279180	51060	9
1	70349810	51120	9
1	70418401	51180	9
1	70485429	51240	9
1	70561756	51300	9
1	70636150	51360	9
1	70721167	51420	9
1	70797621	51480	9
1	70870347	51540	9
1	70929432	51600	8
1	70990528	51660	7
1	71040260	51720	7
1	71088192	51780	7
1	71139706	51840	7
1	71193179	51900	7
1	71246064	51960	7
1	71292592	52020	7
1	71342582	52080	7
1	71391902	52140	8
1	71454410	52200	8
1	71523893	52260	8
1	71583672	52320	8
1	71650977	52380	8
1	71715649	52440	8
1	71767191	52500	8
1	71829990	52560	8
1	71889747	52620	8
1	71948213	52680	8
1	72007016	52740	6
1	72054079	52800	7
1	72101401	52860	6
1	72155828	52920	7
1	72206731	52980	7
1	72256624	53040	7
1	72309104	53100	7
1	72357977	53160	7
1	72404234	53220	7
1	72451630	53280	6
1	72498410	53340	7
1	72545928	53400	7
1	72596014	53460	7
1	72646840	53520	7
1	72694893	53580	7
1	72747142	53640	7
1	72802356	53700	7
1	72858502	53760	7
1	72905557	53820	7
1	72957636	53880	7
1	73010661	53940	7
1	73057951	54000	7
1	73111700	54060	7
1	73159495	54120	6
1	73215251	54180	7
1	73265262	54240	7
1	73311430	54300	7
1	73357138	54360	7
1	73401986	54420	6
1	73440838	54480	6
1	73478126	54540	6
1	73517863	54600	6
1	73558537	54660	6
1	73589375	54720	5
1	73617695	54780	5
1	73648061	54840	5
1	73677799	54900	5
1	73707662	54960	5
1	73737096	55020	5
1	73764441	55080	4
1	73785019	55140	4
1	73804521	55200	4
1	73824385	55260	4
1	73842292	55320	4
1	73861733	55380	4
1	73881151	55440	5
1	73906346	55500	5
1	73935112	55560	5
1	73962364	55620	5
1	73988616	55680	6
1	74029169	55740	6
1	74068723	55800	6
1	74109654	55860	6
1	74149829	55920	6
1	74184997	55980	6
1	74222901	56040	6
1	74265316	56100	6
1	74309629	56160	7
1	74371107	56220	8
1	74430289	56280	8
1	74495159	56340	9
1	74571570	56400	9
1	74655817	56460	9
1	74733375	56520	9
1	74813214	56580	9
1	74901981	56640	9
1	74976391	56700	8
1	75048354	56760	8
1	75108342	56820	8
1	75169790	56880	8
1	75232735	56940	7
1	75279008	57000	7
1	75330860	57060	7
1	75384437	57120	7
1	75434058	57180	7
1	75495791	57240	8
1	75552758	57300	7
1	75603123	57360	7
1	75650079	57420	7
1	75696202	57480	7
1	75748585	57540	7
1	75801228	57600	7
1	75850314	57660	7
1	75893253	57720	7
1	75945048	57780	7
1	75992157	57840	7
1	76046128	57900	6
1	76096656	57960	7
1	76140859	58020	7
1	76194329	58080	7
1	76243018	58140	6
1	76295682	58200	7
1	76348765	58260	6
1	76385640	58320	5
1	76425389	58380	6
1	76468183	58440	6
1	76503962	58500	6
1	76543013	58560	5
1	76587458	58620	6
1	76627030	58680	6
1	76664651	58740	6
1	76700216	58800	6
1	76743493	58860	7
1	76790242	58920	7
1	76839419	58980	7
1	76888928	59040	7
1	76943231	59100	7
1	76998328	59160	7
1	77046765	59220	7
1	77098081	59280	7
1	77144733	59340	7
1	77196549	59400	7
1	77249168	59460	7
1	77296563	59520	6
1	77334737	59580	6
1	77372862	59640	6
1	77413987	59700	6
1	77453036	59760	6
1	77492777	59820	6
1	77534121	59880	6
1	77574366	59940	6
1	77626203	60000	7
1	77677189	60060	7
1	77729817	60120	7
1	77788300	60180	7
1	77836447	60240	7
1	77909321	60300	7
1	77995756	60360	9
1	78081224	60420	9
1	78150959	60480	9
1	78231539	60540	9
1	78307538	60600	9
1	78376919	60660	9
1	78451321	60720	8
1	78532806	60780	9
1	78605394	60840	9
1	78677376	60900	8
1	78751272	60960	9
1	78826156	61020	9
1	78902018	61080	9
1	78978825	61140	9
1	79045808	61200	8
1	79105654	61260	8
1	79172405	61320	8
1	79227996	61380	6
1	79270709	61440	6
1	79308326	61500	6
1	79347405	61560	6
1	79385036	61620	6
1	79428996	61680	6
1	79480475	61740	7
1	79538704	61800	7
1	79603460	61860	8
1	79670686	61920	9
1	79750523	61980	9
1	79826248	62040	9
1	79901367	62100	9
1	79978754	62160	9
1	80061359	62220	9
1	80144528	62280	9
1	80221375	62340	9
1	80292721	62400	8
1	80361164	62460	8
1	80428649	62520	8
1	80490023	62580	8
1	80550185	62640	8
1	80617414	62700	9
1	80702740	62760	10
1	80794827	62820	10
1	80883078	62880	11
1	81000506	62940	10
1	81110272	63000	11
1	81220255	63060	11
1	81324717	63120	11
1	81430648	63180	11
1	81538259	63240	10
1	81643530	63300	10
1	81736085	63360	10
1	81833085	63420	10
1	81926573	63480	10
1	82013491	63540	9
1	82104946	63600	10
1	82191831	63660	10
1	82284510	63720	9
1	82377060	63780	10
1	82459501	63840	9
1	82547276	63900	9
1	82615826	63960	9
1	82692626	64020	9
1	82773318	64080	9
1	82853392	64140	9
1	82933142	64200	9
1	83005099	64260	9
1	83076630	64320	9
1	83153633	64380	9
1	83233247	64440	9
1	83316156	64500	10
1	83398056	64560	9
1	83477353	64620	8
1	83553070	64680	9
1	83627926	64740	9
1	83718819	64800	9
1	83796416	64860	9
1	83879763	64920	9
1	83949678	64980	9
1	84024563	65040	8
1	84096896	65100	8
1	84168396	65160	9
1	84256179	65220	10
1	84346048	65280	10
1	84434204	65340	10
1	84519893	65400	10
1	84622322	65460	10
1	84716914	65520	10
1	84817404	65580	9
1	84916445	65640	10
1	85004620	65700	10
1	85091435	65760	10
1	85181495	65820	10
1	85280092	65880	10
1	85365367	65940	10
1	85462550	66000	10
1	85567331	66060	10
1	85652571	66120	10
1	85745857	66180	10
1	85853115	66240	10
1	85959019	66300	11
1	86077775	66360	11
1	86182882	66420	10
1	86288848	66480	11
1	86387153	66540	11
1	86497465	66600	11
1	86602485	66660	11
1	86713788	66720	11
1	86825745	66780	11
1	86941323	66840	11
1	87058336	66900	11
1	87164866	66960	11
1	87266379	67020	11
1	87368951	67080	10
1	87455569	67140	10
1	87552485	67200	10
1	87635730	67260	10
1	87745053	67320	11
1	87845525	67380	10
1	87938009	67440	9
1	88036239	67500	10
1	88141931	67560	10
1	88236212	67620	10
1	88337177	67680	9
1	88435647	67740	10
1	88525448	67800	10
1	88621898	67860	9
1	88708098	67920	9
1	88808745	67980	10
1	88906940	68040	11
1	89014991	68100	11
1	89119357	68160	11
1	89243976	68220	11
1	89341319	68280	10
1	89462176	68340	11
1	89569681	68400	11
1	89680701	68460	11
1	89794882	68520	11
1	89910806	68580	10
1	90025437	68640	11
1	90139467	68700	11
1	90248535	68760	11
1	90366755	68820	11
1	90475298	68880	11
1	90589751	68940	11
1	90698909	69000	11
1	90818464	69060	11
1	90921773	69120	11
1	91028142	69180	11
1	91143870	69240	11
1	91253270	69300	11
1	91363554	69360	11
1	91490411	69420	12
1	91617812	69480	12
1	91750624	69540	12
1	91884786	69600	12
1	92017845	69660	12
1	92140602	69720	11
1	92275115	69780	12
1	92393185	69840	12
1	92526303	69900	12
1	92653742	69960	10
1	92761897	70020	11
1	92882562	70080	11
1	92985301	70140	11
1	93081417	70200	11
1	93186135	70260	10
1	93291141	70320	11
1	93389385	70380	11
1	93506177	70440	10
1	93608092	70500	11
1	93723263	70560	11
1	93829521	70620	11
1	93937325	70680	11
1	94050345	70740	11
1	94161418	70800	11
1	94262057	70860	10
1	94367354	70920	11
1	94483194	70980	11
1	94595360	71040	11
1	94709133	71100	11
1	94814493	71160	11
1	94925448	71220	11
1	95044090	71280	10
1	95160633	71340	11
1	95271243	71400	10
1	95375972	71460	10
1	95471470	71520	10
1	95566006	71580	10
1	95659135	71640	10
1	95749625	71700	10
1	95833666	71760	10
1	95923705	71820	10
1	96003910	71880	10
1	96097534	71940	6
1	96180537	72000	9
1	96251248	72060	8
1	96327816	72120	8
1	96405638	72180	9
1	96478632	72240	9
1	96555563	72300	9
1	96636949	72360	10
1	96706636	72420	9
1	96815354	72480	10
1	96924011	72540	10
1	97016602	72600	10
1	97112542	72660	9
1	97205416	72720	10
1	97296957	72780	9
1	97386000	72840	10
1	97483121	72900	10
1	97581280	72960	10
1	97674152	73020	10
1	97768274	73080	10
1	97860161	73140	10
1	97956188	73200	10
1	98053777	73260	9
1	98139026	73320	9
1	98237365	73380	10
1	98340209	73440	10
1	98426834	73500	10
1	98528429	73560	9
1	98616454	73620	10
1	98711059	73680	10
1	98808168	73740	10
1	98896816	73800	10
1	98990547	73860	9
1	99086951	73920	10
1	99181422	73980	10
1	99268579	74040	9
1	99351072	74100	9
1	99422030	74160	9
1	99504300	74220	9
1	99584180	74280	9
1	99662871	74340	9
1	99739254	74400	9
1	99812558	74460	9
1	99885194	74520	8
1	99972579	74580	9
1	100048693	74640	9
1	100131092	74700	9
1	100202604	74760	9
1	100261036	74820	7
1	100330359	74880	8
1	100395514	74940	8
1	100464778	75000	7
1	100531198	75060	7
1	100590812	75120	8
1	100654270	75180	8
1	100713796	75240	8
1	100777742	75300	8
1	100840955	75360	8
1	100911181	75420	8
1	100973050	75480	9
1	101037433	75540	8
1	101102086	75600	8
1	101156192	75660	7
1	101211939	75720	7
1	101260650	75780	6
1	101296951	75840	6
1	101335873	75900	6
1	101375304	75960	6
1	101417455	76020	6
1	101459763	76080	6
1	101498160	76140	6
1	101536977	76200	6
1	101582259	76260	6
1	101623972	76320	6
1	101661170	76380	5
1	101685945	76440	5
1	101711011	76500	5
1	101742078	76560	4
1	101771048	76620	5
1	101797372	76680	5
1	101827937	76740	5
1	101857901	76800	5
1	101887642	76860	5
1	101915060	76920	5
1	101943995	76980	5
1	101968797	77040	5
1	101996944	77100	5
1	102026332	77160	5
1	102052618	77220	5
1	102080840	77280	5
1	102106165	77340	4
1	102127079	77400	4
1	102146460	77460	4
1	102170119	77520	4
1	102191838	77580	4
1	102212828	77640	4
1	102234121	77700	4
1	102254190	77760	4
1	102275006	77820	4
1	102296131	77880	4
1	102317867	77940	4
1	102338829	78000	4
1	102359850	78060	4
1	102379606	78120	4
1	102401616	78180	4
1	102419805	78240	4
1	102438793	78300	4
1	102457602	78360	4
1	102478242	78420	4
1	102498935	78480	4
1	102520166	78540	4
1	102541681	78600	4
1	102563281	78660	4
1	102588963	78720	5
1	102618085	78780	5
1	102651631	78840	5
1	102685753	78900	6
1	102726384	78960	7
1	102778320	79020	7
1	102828467	79080	7
1	102877474	79140	7
1	102927799	79200	7
1	102980613	79260	7
1	103036806	79320	6
1	103090139	79380	7
1	103141886	79440	8
1	103203642	79500	8
1	103263005	79560	8
1	103330456	79620	8
1	103393346	79680	7
1	103462461	79740	8
1	103531037	79800	8
1	103584964	79860	7
1	103644787	79920	8
1	103703897	79980	8
1	103766492	80040	8
1	103824845	80100	7
1	103888367	80160	9
1	103968994	80220	9
1	104043473	80280	9
1	104116258	80340	8
1	104184694	80400	9
1	104267578	80460	9
1	104345278	80520	9
1	104414757	80580	9
1	104496101	80640	8
1	104572933	80700	10
1	104666544	80760	10
1	104764410	80820	10
1	104850586	80880	10
1	104947851	80940	10
1	105037359	81000	10
1	105137215	81060	10
1	105234223	81120	10
1	105332492	81180	10
1	105425949	81240	10
1	105519041	81300	10
1	105611239	81360	9
1	105693256	81420	10
1	105780467	81480	10
1	105869871	81540	10
1	105968063	81600	10
1	106068537	81660	10
1	106160342	81720	10
1	106255259	81780	10
1	106355337	81840	10
1	106444136	81900	10
1	106542188	81960	9
1	106629957	82020	9
1	106717758	82080	10
1	106810149	82140	9
1	106884731	82200	9
1	106961997	82260	8
1	107046329	82320	9
1	107123524	82380	9
1	107205190	82440	9
1	107291599	82500	9
1	107389415	82560	8
1	107490966	82620	9
1	107586521	82680	9
1	107680106	82740	10
1	107767018	82800	8
1	107854557	82860	10
1	107953228	82920	10
1	108043055	82980	10
1	108141193	83040	7
1	108206685	83100	8
1	108281683	83160	6
1	108349646	83220	5
1	108417431	83280	7
1	108480875	83340	9
1	108545903	83400	7
1	108618585	83460	8
1	108685152	83520	3
1	108762035	83580	7
1	108839150	83640	6
1	108911833	83700	5
1	108979434	83760	7
1	109055678	83820	9
1	109136601	83880	9
1	109216419	83940	9
1	109288404	84000	8
1	109364360	84060	9
1	109437032	84120	9
1	109512310	84180	8
1	109587608	84240	8
1	109662217	84300	8
1	109739242	84360	8
1	109818094	84420	8
1	109891062	84480	9
1	109969894	84540	9
1	110053625	84600	9
1	110135627	84660	9
1	110213867	84720	9
1	110293828	84780	9
1	110375594	84840	8
1	110442181	84900	7
1	110525124	84960	9
1	110600977	85020	9
1	110678418	85080	9
1	110746359	85140	9
1	110832110	85200	9
1	110917516	85260	9
1	111001107	85320	9
1	111081627	85380	9
1	111159154	85440	9
1	111238755	85500	9
1	111317674	85560	8
1	111391165	85620	7
1	111466579	85680	9
1	111552318	85740	9
1	111635693	85800	9
1	111713622	85860	8
1	111781633	85920	8
1	111857932	85980	8
1	111914161	86040	8
1	111985734	86100	8
1	112047919	86160	8
1	112113955	86220	8
1	112173859	86280	7
1	112246330	86340	8
1	112309171	86400	7
1	112367667	86460	7
1	112432750	86520	8
1	112497616	86580	8
1	112559519	86640	8
1	112621695	86700	7
1	112697287	86760	9
1	112767469	86820	9
1	112851483	86880	9
1	112924587	86940	8
1	112995155	87000	7
1	113065394	87060	9
1	113141637	87120	9
1	113224626	87180	9
1	113306970	87240	9
1	113397853	87300	9
1	113480813	87360	9
1	113558675	87420	9
1	113625851	87480	8
1	113691594	87540	7
1	113756556	87600	8
1	113814578	87660	7
1	113869097	87720	8
1	113925218	87780	8
1	113987430	87840	8
1	114050763	87900	7
1	114118952	87960	8
1	114175737	88020	8
1	114226484	88080	7
1	114282920	88140	7
1	114333988	88200	6
1	114381287	88260	7
1	114427610	88320	7
1	114476691	88380	7
1	114520259	88440	7
1	114571278	88500	7
1	114622003	88560	7
1	114667498	88620	7
1	114717655	88680	7
1	114765474	88740	7
1	114815581	88800	7
1	114868819	88860	6
1	114910488	88920	7
1	114963072	88980	6
1	115010194	89040	7
1	115056740	89100	5