version 2
run ATSConfig-large-2-0-20130630-16:00:23-1532
attr configname ATSConfig-large-2
attr datetime 20130630-16:00:23
attr experiment ATSConfig-large-2
attr inifile E:/2011112922/WorkStations/OMNet41/OverSim-20101103/simulations/omnetpp.ini
attr iterationvars ""
attr iterationvars2 $repetition=0
attr measurement ""
attr network oversim.underlay.simpleunderlay.SimpleUnderlayNetwork
attr processid 1532
attr repetition 0
attr replication #0
attr resultdir results
attr runnumber 0
attr seedset 0

vector 1  SimpleUnderlayNetwork.globalObserver.globalStatistics  "GlobalNodeList: Number of nodes"  ETV
vector 2  SimpleUnderlayNetwork.globalObserver.globalStatistics  Fanjing:ATS:maxdataTimeStamp0  ETV
vector 3  SimpleUnderlayNetwork.globalObserver.globalStatistics  Fanjing:ATS:maxdataHops0  ETV
vector 4  SimpleUnderlayNetwork.globalObserver.globalStatistics  Fanjing:ATS:maxdataDataNum0  ETV
vector 5  SimpleUnderlayNetwork.globalObserver.globalStatistics  Fanjing:ATS:maxdataTimeStamp1  ETV
vector 6  SimpleUnderlayNetwork.globalObserver.globalStatistics  Fanjing:ATS:maxdataHops1  ETV
vector 7  SimpleUnderlayNetwork.globalObserver.globalStatistics  Fanjing:ATS:maxdataDataNum1  ETV
vector 8  SimpleUnderlayNetwork.globalObserver.globalStatistics  Fanjing:ATS:maxdataTimeStamp2  ETV
vector 9  SimpleUnderlayNetwork.globalObserver.globalStatistics  Fanjing:ATS:maxdataHops2  ETV
vector 10  SimpleUnderlayNetwork.globalObserver.globalStatistics  Fanjing:ATS:maxdataDataNum2  ETV
vector 11  SimpleUnderlayNetwork.globalObserver.globalStatistics  Fanjing:ATS:maxdataTimeStamp  ETV
vector 12  SimpleUnderlayNetwork.globalObserver.globalStatistics  Fanjing:ATS:JoinTime  ETV
1	3018488	1550	500
1	3018912	1600	500
1	3019317	1650	500
1	3019729	1700	500
1	3020154	1750	500
1	3020576	1800	500
1	3021008	1850	500
1	3021414	1900	500
1	3021829	1950	500
1	3022251	2000	500
1	3022668	2050	500
1	3023082	2100	500
1	3023503	2150	500
1	3023920	2200	500
1	3024350	2250	500
1	3024766	2300	500
1	3025179	2350	500
1	3025570	2400	500
1	3026007	2450	500
1	3026447	2500	500
1	3026870	2550	500
1	3027270	2600	500
1	3027673	2650	500
1	3028096	2700	500
1	3028516	2750	500
1	3028946	2800	500
1	3029378	2850	500
1	3029768	2900	500
1	3030195	2950	500
2	3030634	2999.824710304	0.13555438799995
2	3030634	2999.824710304	0.17285943999991
2	3030634	2999.824710304	0.10251283299999
2	3030634	2999.824710304	0.11889606199998
2	3030634	2999.824710304	0.04047570900002
2	3030634	2999.824710304	0.18639617299982
2	3030634	2999.824710304	0.066627987999937
2	3030634	2999.824710304	0.061541864999981
2	3030634	2999.824710304	0.074077362000025
2	3030634	2999.824710304	0.04592473799994
2	3030634	2999.824710304	0.049334853999881
2	3030634	2999.824710304	0.22640191899995
2	3030634	2999.824710304	0.11695227699988
2	3030634	2999.824710304	0.057165515999941
2	3030634	2999.824710304	0.20692997799983
2	3030634	2999.824710304	0.19947668399982
2	3030634	2999.824710304	0.058078215000023
2	3030634	2999.824710304	0.19733309899993
2	3030634	2999.824710304	0.12984543999983
2	3030634	2999.824710304	0.12815341299984
2	3030634	2999.824710304	0.11233080499983
2	3030634	2999.824710304	0.059872044000031
2	3030634	2999.824710304	0.047380157999896
2	3030634	2999.824710304	0.13242046699997
2	3030634	2999.824710304	0.11889960299982
2	3030634	2999.824710304	0.12566862999984
2	3030634	2999.824710304	0.11856591599985
2	3030634	2999.824710304	0.09430776399995
2	3030634	2999.824710304	0.070441742999947
2	3030634	2999.824710304	0.089522758999919
2	3030634	2999.824710304	0.06594509599995
2	3030634	2999.824710304	0.07572603199992
2	3030634	2999.824710304	0.062515488999907
2	3030634	2999.824710304	0.087512785999934
2	3030634	2999.824710304	0.083337534999828
2	3030634	2999.824710304	0.20811033899986
2	3030634	2999.824710304	0.20559742699993
2	3030634	2999.824710304	0.058736430999943
2	3030634	2999.824710304	0.10347773900003
2	3030634	2999.824710304	0.14045151300002
2	3030634	2999.824710304	0.050733921999836
2	3030634	2999.824710304	0.14636188299983
2	3030634	2999.824710304	0.18703279299984
2	3030634	2999.824710304	0.20703489599987
2	3030634	2999.824710304	0.13685645099986
2	3030634	2999.824710304	0.13437940299991
2	3030634	2999.824710304	0.099938936999934
2	3030634	2999.824710304	0.1291527809999
2	3030634	2999.824710304	0.18614374200001
2	3030634	2999.824710304	0.08582482199995
2	3030634	2999.824710304	0.17604626599996
2	3030634	2999.824710304	0.2165558669999
2	3030634	2999.824710304	0.065457160999813
2	3030634	2999.824710304	0.11475263900002
2	3030634	2999.824710304	0.10386957999981
2	3030634	2999.824710304	0.1114019879999
2	3030634	2999.824710304	0.056257838999954
2	3030634	2999.824710304	0.10178187699989
2	3030634	2999.824710304	0.21171704899984
2	3030634	2999.824710304	0.10860390899984
2	3030634	2999.824710304	0.12509202799993
2	3030634	2999.824710304	0.070705792999888
2	3030634	2999.824710304	0.068080871999882
2	3030634	2999.824710304	0.19737479699984
2	3030634	2999.824710304	0.083116352999923
2	3030634	2999.824710304	0.072804326999858
2	3030634	2999.824710304	0.069656041999906
2	3030634	2999.824710304	0.079502879999836
2	3030634	2999.824710304	0.209041071
2	3030634	2999.824710304	0.10463319999985
2	3030634	2999.824710304	0.16345402599995
2	3030634	2999.824710304	0.070508760999928
2	3030634	2999.824710304	0.10637356099983
2	3030634	2999.824710304	0.070170942999994
2	3030634	2999.824710304	0.20836364399997
2	3030634	2999.824710304	0.089595815999928
2	3030634	2999.824710304	0.062081389000014
2	3030634	2999.824710304	0.12024103499994
2	3030634	2999.824710304	0.11978879999992
2	3030634	2999.824710304	0.31040730999985
2	3030634	2999.824710304	0.12408922500003
2	3030634	2999.824710304	0.19976881100001
2	3030634	2999.824710304	0.13023215399994
2	3030634	2999.824710304	0.11610431899999
2	3030634	2999.824710304	0.10243437199983
2	3030634	2999.824710304	0.21820042199988
2	3030634	2999.824710304	0.21697797799993
2	3030634	2999.824710304	0.16483585799983
2	3030634	2999.824710304	0.09570250999991
2	3030634	2999.824710304	0.140068638
2	3030634	2999.824710304	0.065746741999874
2	3030634	2999.824710304	0.13368842699992
2	3030634	2999.824710304	0.095039846999953
2	3030634	2999.824710304	0.14202173900003
2	3030634	2999.824710304	0.30874777399981
2	3030634	2999.824710304	0.095236268000008
2	3030634	2999.824710304	0.12152706099982
2	3030634	2999.824710304	0.072169895999878
2	3030634	2999.824710304	0.13495573
2	3030634	2999.824710304	0.071929300999955
2	3030634	2999.824710304	0.081734345999848
2	3030634	2999.824710304	0.19417974399994
2	3030634	2999.824710304	0.068650803999844
2	3030634	2999.824710304	0.20791926499987
2	3030634	2999.824710304	0.28546331899997
2	3030634	2999.824710304	0.22223335799981
2	3030634	2999.824710304	0.11617410399981
2	3030634	2999.824710304	0.13372742999991
2	3030634	2999.824710304	0.067740706999984
2	3030634	2999.824710304	0.20358165799985
2	3030634	2999.824710304	0.10519559299996
2	3030634	2999.824710304	0.062926392999998
2	3030634	2999.824710304	0.085351207000031
2	3030634	2999.824710304	0.075436545000002
2	3030634	2999.824710304	0.10035459200003
2	3030634	2999.824710304	0.074146100000007
2	3030634	2999.824710304	0.10859444399989
2	3030634	2999.824710304	0.13420399699999
2	3030634	2999.824710304	0.15118251199988
2	3030634	2999.824710304	0.12340476999998
2	3030634	2999.824710304	0.17856108000001
2	3030634	2999.824710304	0.11208877699983
2	3030634	2999.824710304	0.13392277799994
2	3030634	2999.824710304	0.15087888199992
2	3030634	2999.824710304	0.13609792199986
2	3030634	2999.824710304	0.14744486399991
2	3030634	2999.824710304	0.078334123999866
2	3030634	2999.824710304	0.11810973399997
2	3030634	2999.824710304	0.1057586899999
2	3030634	2999.824710304	0.078096482999854
2	3030634	2999.824710304	0.10316836199991
2	3030634	2999.824710304	0.19023232799987
2	3030634	2999.824710304	0.10068487499984
2	3030634	2999.824710304	0.20973663199993
2	3030634	2999.824710304	0.093105274999971
2	3030634	2999.824710304	0.13352883199991
2	3030634	2999.824710304	0.21976431299981
2	3030634	2999.824710304	0.067526068000006
2	3030634	2999.824710304	0.078945910999892
2	3030634	2999.824710304	0.19405739799981
2	3030634	2999.824710304	0.095222135999848
2	3030634	2999.824710304	0.13684603000002
2	3030634	2999.824710304	0.11795416899986
2	3030634	2999.824710304	0.15349783399984
2	3030634	2999.824710304	0.18953634399986
2	3030634	2999.824710304	0.14063323300002
2	3030634	2999.824710304	0.073991376999857
2	3030634	2999.824710304	0.079042296999887
2	3030634	2999.824710304	0.10073071399984
2	3030634	2999.824710304	0.28526139099995
2	3030634	2999.824710304	0.19720446199995
2	3030634	2999.824710304	0.22330213199984
2	3030634	2999.824710304	0.073239352999963
2	3030634	2999.824710304	0.085148461000017
2	3030634	2999.824710304	0.098390155999823
2	3030634	2999.824710304	0.063737296999989
2	3030634	2999.824710304	0.10924501299996
2	3030634	2999.824710304	0.13785223899981
2	3030634	2999.824710304	0.11229995899998
2	3030634	2999.824710304	0.20142816199996
2	3030634	2999.824710304	0.11733941299985
2	3030634	2999.824710304	0.069800881999981
2	3030634	2999.824710304	0.20584663699992
2	3030634	2999.824710304	0.087894759999926
2	3030634	2999.824710304	0.12176353799987
2	3030634	2999.824710304	0.117878991
2	3030634	2999.824710304	0.11483762099988
2	3030634	2999.824710304	0.1509928349999
2	3030634	2999.824710304	0.099895817999823
2	3030634	2999.824710304	0.12713791900001
2	3030634	2999.824710304	0.12418352199984
2	3030634	2999.824710304	0.11444940199999
2	3030634	2999.824710304	0.10818038100001
2	3030634	2999.824710304	0.18615112899988
2	3030634	2999.824710304	0.21135333099983
2	3030634	2999.824710304	0.11543400099981
2	3030634	2999.824710304	0.1160049319999
2	3030634	2999.824710304	0.13199245700002
2	3030634	2999.824710304	0.16542377999986
2	3030634	2999.824710304	0.11419940399992
2	3030634	2999.824710304	0.10258621399998
2	3030634	2999.824710304	0.15770940599987
2	3030634	2999.824710304	0.21765662600001
2	3030634	2999.824710304	0.12172074
2	3030634	2999.824710304	0.23398586600001
2	3030634	2999.824710304	0.11189290099992
2	3030634	2999.824710304	0.068510644999833
2	3030634	2999.824710304	0.117111497
2	3030634	2999.824710304	0.087658680999994
2	3030634	2999.824710304	0.10446919699984
2	3030634	2999.824710304	0.075190595999857
2	3030634	2999.824710304	0.092361612999866
2	3030634	2999.824710304	0.068682366999838
2	3030634	2999.824710304	0.080376204999993
2	3030634	2999.824710304	0.065611973999921
2	3030634	2999.824710304	0.12648883899988
2	3030634	2999.824710304	0.072186439999996
2	3030634	2999.824710304	0.20000939399984
2	3030634	2999.824710304	0.082324352999876
2	3030634	2999.824710304	0.1367589219999
2	3030634	2999.824710304	0.099244671999941
2	3030634	2999.824710304	0.20365955499983
2	3030634	2999.824710304	0.14255060099981
2	3030634	2999.824710304	0.20995034299995
2	3030634	2999.824710304	0.10126023099997
2	3030634	2999.824710304	0.11688014899983
2	3030634	2999.824710304	0.083523524999919
2	3030634	2999.824710304	0.18675009399999
2	3030634	2999.824710304	0.072163704999866
2	3030634	2999.824710304	0.1939556939999
2	3030634	2999.824710304	0.12781567499997
2	3030634	2999.824710304	0.078738046999888
2	3030634	2999.824710304	0.07422566199989
2	3030634	2999.824710304	0.12020971099992
2	3030634	2999.824710304	0.15785747599989
2	3030634	2999.824710304	0.090036029999965
2	3030634	2999.824710304	0.11824451799998
2	3030634	2999.824710304	0.12566495700003
2	3030634	2999.824710304	0.084869648999984
2	3030634	2999.824710304	0.12181884199981
2	3030634	2999.824710304	0.13052538599982
2	3030634	2999.824710304	0.10251186200003
2	3030634	2999.824710304	0.068994049999901
2	3030634	2999.824710304	0.21551560099988
2	3030634	2999.824710304	0.064624245999994
2	3030634	2999.824710304	0.11965803499993
2	3030634	2999.824710304	0.22383075499988
2	3030634	2999.824710304	0.11644955199995
2	3030634	2999.824710304	0.078546341999981
2	3030634	2999.824710304	0.088571037999827
2	3030634	2999.824710304	0.10429768599988
2	3030634	2999.824710304	0.13892903399983
2	3030634	2999.824710304	0.085989987999938
2	3030634	2999.824710304	0.076458560999981
2	3030634	2999.824710304	0.11483565000003
2	3030634	2999.824710304	0.1273833969999
2	3030634	2999.824710304	0.082616226000027
2	3030634	2999.824710304	0.223175696
2	3030634	2999.824710304	0.12224358200001
2	3030634	2999.824710304	0.13637238299998
2	3030634	2999.824710304	0.074431603999983
2	3030634	2999.824710304	0.12167287099987
2	3030634	2999.824710304	0.11932457699982
2	3030634	2999.824710304	0.085867828999881
2	3030634	2999.824710304	0.20806411599983
2	3030634	2999.824710304	0.12060869299989
2	3030634	2999.824710304	0.23597892899988
2	3030634	2999.824710304	0.12356942899987
2	3030634	2999.824710304	0.071081512999854
2	3030634	2999.824710304	0.20210819399995
2	3030634	2999.824710304	0.076683279000008
2	3030634	2999.824710304	0.11224719099982
2	3030634	2999.824710304	0.14961817299991
2	3030634	2999.824710304	0.20069364599999
2	3030634	2999.824710304	0.090167465999912
2	3030634	2999.824710304	0.091535826999916
2	3030634	2999.824710304	0.06444055399993
2	3030634	2999.824710304	0.25487975099986
2	3030634	2999.824710304	0.078579936999859
2	3030634	2999.824710304	0.12692534299981
2	3030634	2999.824710304	0.071184023999876
2	3030634	2999.824710304	0.076209648000031
2	3030634	2999.824710304	0.079779004999864
2	3030634	2999.824710304	0.079783695999822
2	3030634	2999.824710304	0.11482294400003
2	3030634	2999.824710304	0.075673070999983
2	3030634	2999.824710304	0.075321639999856
2	3030634	2999.824710304	0.064237950999996
2	3030634	2999.824710304	0.1907724109999
2	3030634	2999.824710304	0.077220393999824
2	3030634	2999.824710304	0.21402395199993
2	3030634	2999.824710304	0.15887765599996
2	3030634	2999.824710304	0.36569293399998
2	3030634	2999.824710304	0.16032184300002
2	3030634	2999.824710304	0.20150042499995
2	3030634	2999.824710304	0.078101521999997
2	3030634	2999.824710304	0.14894441599995
2	3030634	2999.824710304	0.071465284999931
2	3030634	2999.824710304	0.11963410599992
2	3030634	2999.824710304	0.15095238799995
2	3030634	2999.824710304	0.20731635699985
2	3030634	2999.824710304	0.070754533999889
2	3030634	2999.824710304	0.074283891999812
2	3030634	2999.824710304	0.092857642999888
2	3030634	2999.824710304	0.21239831599996
2	3030634	2999.824710304	0.07402126199986
2	3030634	2999.824710304	0.21870907399989
2	3030634	2999.824710304	0.11468794799998
2	3030634	2999.824710304	0.073831517999906
2	3030634	2999.824710304	0.11283418699986
2	3030634	2999.824710304	0.083935515999883
2	3030634	2999.824710304	0.074901887999886
2	3030634	2999.824710304	0.13237441699994
2	3030634	2999.824710304	0.075931310999977
2	3030634	2999.824710304	0.12416911299988
2	3030634	2999.824710304	0.11444002899998
2	3030634	2999.824710304	0.10512245199993
2	3030634	2999.824710304	0.075275694999846
2	3030634	2999.824710304	0.15471313099988
2	3030634	2999.824710304	0.12014783899986
2	3030634	2999.824710304	0.12259935799989
2	3030634	2999.824710304	0.072740543000009
2	3030634	2999.824710304	0.11824037999986
2	3030634	2999.824710304	0.14546706299984
2	3030634	2999.824710304	0.11122411699989
2	3030634	2999.824710304	0.071406030999924
2	3030634	2999.824710304	0.21314959899996
2	3030634	2999.824710304	0.12844297599986
2	3030634	2999.824710304	0.076280072999907
2	3030634	2999.824710304	0.11289943599991
2	3030634	2999.824710304	0.10731786199995
2	3030634	2999.824710304	0.11883487699993
2	3030634	2999.824710304	0.098786921999817
2	3030634	2999.824710304	0.30616507599984
2	3030634	2999.824710304	0.20627063999996
2	3030634	2999.824710304	0.12048002899996
2	3030634	2999.824710304	0.073700450999922
2	3030634	2999.824710304	0.11135753899998
2	3030634	2999.824710304	0.10588690399982
2	3030634	2999.824710304	0.085573950000025
2	3030634	2999.824710304	0.084658887999922
2	3030634	2999.824710304	0.39491420299987
2	3030634	2999.824710304	0.125875447
2	3030634	2999.824710304	0.085918866999918
2	3030634	2999.824710304	0.17096761499988
2	3030634	2999.824710304	0.20425629700003
2	3030634	2999.824710304	0.21612894600003
2	3030634	2999.824710304	0.21682271999998
2	3030634	2999.824710304	0.090945027999851
2	3030634	2999.824710304	0.12938839100002
2	3030634	2999.824710304	0.1331167159999
2	3030634	2999.824710304	0.12327668399985
2	3030634	2999.824710304	0.077826762999848
2	3030634	2999.824710304	0.10998983199988
2	3030634	2999.824710304	0.1109359269999
2	3030634	2999.824710304	0.11857845899999
2	3030634	2999.824710304	0.072764056999858
2	3030634	2999.824710304	0.12607337199984
2	3030634	2999.824710304	0.19785608500001
2	3030634	2999.824710304	0.099868108999999
2	3030634	2999.824710304	0.072933016999968
2	3030634	2999.824710304	0.21016898199991
2	3030634	2999.824710304	0.067101837999871
2	3030634	2999.824710304	0.070092322999926
2	3030634	2999.824710304	0.13414749399999
2	3030634	2999.824710304	0.073881011999902
2	3030634	2999.824710304	0.070601542999839
2	3030634	2999.824710304	0.18363157099998
2	3030634	2999.824710304	0.081498757999952
2	3030634	2999.824710304	0.10512068399998
2	3030634	2999.824710304	0.076360913999906
2	3030634	2999.824710304	0.22023028699982
2	3030634	2999.824710304	0.096126940999966
2	3030634	2999.824710304	0.10880508199989
2	3030634	2999.824710304	0.074516832999961
2	3030634	2999.824710304	0.10307914700002
2	3030634	2999.824710304	0.072560558999839
2	3030634	2999.824710304	0.21130554299998
2	3030634	2999.824710304	0.11086432100001
2	3030634	2999.824710304	0.14948184299988
2	3030634	2999.824710304	0.129417182
2	3030634	2999.824710304	0.14388340200003
2	3030634	2999.824710304	0.104976115
2	3030634	2999.824710304	0.12566750899987
2	3030634	2999.824710304	0.17868433699982
2	3030634	2999.824710304	0.11247522899998
2	3030634	2999.824710304	0.1196038139999
2	3030634	2999.824710304	0.073783993000006
2	3030634	2999.824710304	0.21086937999985
2	3030634	2999.824710304	0.12365209199993
2	3030634	2999.824710304	0.076992791999828
2	3030634	2999.824710304	0.123194883
2	3030634	2999.824710304	0.073008547999962
2	3030634	2999.824710304	0.066925510999909
2	3030634	2999.824710304	0.19542265899986
2	3030634	2999.824710304	0.2218131269999
2	3030634	2999.824710304	0.13941721599986
2	3030634	2999.824710304	0.15304234599989
2	3030634	2999.824710304	0.075435624999955
2	3030634	2999.824710304	0.18991706299994
2	3030634	2999.824710304	0.079818085999932
2	3030634	2999.824710304	0.074659979999979
2	3030634	2999.824710304	0.13410532900002
2	3030634	2999.824710304	0.11556234999989
2	3030634	2999.824710304	0.22642462399995
2	3030634	2999.824710304	0.20020039199994
2	3030634	2999.824710304	0.12205354399998
2	3030634	2999.824710304	0.10712962599996
2	3030634	2999.824710304	0.076384891999851
2	3030634	2999.824710304	0.11855769199997
2	3030634	2999.824710304	0.12441055699992
2	3030634	2999.824710304	0.073520779999853
2	3030634	2999.824710304	0.098506786999906
2	3030634	2999.824710304	0.13231051499997
2	3030634	2999.824710304	0.088585030999866
2	3030634	2999.824710304	0.085141335999879
2	3030634	2999.824710304	0.12073085099996
2	3030634	2999.824710304	0.083204730000034
2	3030634	2999.824710304	0.12748481899985
2	3030634	2999.824710304	0.23870218999991
2	3030634	2999.824710304	0.082208898999852
2	3030634	2999.824710304	0.087547493999864
2	3030634	2999.824710304	0.43266398299988
2	3030634	2999.824710304	0.22115005599994
2	3030634	2999.824710304	0.11944004499992
2	3030634	2999.824710304	0.11468893300002
2	3030634	2999.824710304	0.10633905399982
2	3030634	2999.824710304	0.13853736299984
2	3030634	2999.824710304	0.1940186889999
2	3030634	2999.824710304	0.083081431999972
2	3030634	2999.824710304	0.072458680999944
2	3030634	2999.824710304	0.072992310000018
2	3030634	2999.824710304	0.064588847999858
2	3030634	2999.824710304	0.071376366999857
2	3030634	2999.824710304	0.089242001999992
2	3030634	2999.824710304	0.12435457099991
2	3030634	2999.824710304	0.071516485999837
2	3030634	2999.824710304	0.072233633999986
2	3030634	2999.824710304	0.15414270999986
2	3030634	2999.824710304	0.11401022199993
2	3030634	2999.824710304	0.11012610399985
2	3030634	2999.824710304	0.23101828099993
2	3030634	2999.824710304	0.16633886399995
2	3030634	2999.824710304	0.12106813399987
2	3030634	2999.824710304	0.092492690999961
2	3030634	2999.824710304	0.21341205399995
2	3030634	2999.824710304	0.13274114799992
2	3030634	2999.824710304	0.089465872999881
2	3030634	2999.824710304	0.072920027999999
2	3030634	2999.824710304	0.21098493499994
2	3030634	2999.824710304	0.13597266900001
2	3030634	2999.824710304	0.20081100199991
2	3030634	2999.824710304	0.1345648649999
2	3030634	2999.824710304	0.073252827000033
2	3030634	2999.824710304	0.076889830000027
2	3030634	2999.824710304	0.096341677999817
2	3030634	2999.824710304	0.10312943399981
2	3030634	2999.824710304	0.092931949999866
2	3030634	2999.824710304	0.20771274599997
2	3030634	2999.824710304	0.15583393199995
2	3030634	2999.824710304	0.064635876000011
2	3030634	2999.824710304	0.22346290099995
2	3030634	2999.824710304	0.22105510799997
2	3030634	2999.824710304	0.078092440999853
2	3030634	2999.824710304	0.13484209299986
2	3030634	2999.824710304	0.16973660999997
2	3030634	2999.824710304	0.12289423499988
2	3030634	2999.824710304	0.11290969699985
2	3030634	2999.824710304	0.11895703799996
2	3030634	2999.824710304	0.072587690999853
2	3030634	2999.824710304	0.080800695999869
2	3030634	2999.824710304	0.072594003999939
2	3030634	2999.824710304	0.077452680999841
2	3030634	2999.824710304	0.12426898699982
2	3030634	2999.824710304	0.082322997999881
2	3030634	2999.824710304	0.13173507900001
2	3030634	2999.824710304	0.120449151
2	3030634	2999.824710304	0.076301439999952
2	3030634	2999.824710304	0.11623175399995
2	3030634	2999.824710304	0.07836931099996
2	3030634	2999.824710304	0.074011571000028
2	3030634	2999.824710304	0.11732999699984
2	3030634	2999.824710304	0.11570772699997
2	3030634	2999.824710304	0.11784040999987
2	3030634	2999.824710304	0.074285405999944
2	3030634	2999.824710304	0.12036338199982
2	3030634	2999.824710304	0.21397757699992
2	3030634	2999.824710304	0.14522276299999
2	3030634	2999.824710304	0.11709845199994
2	3030634	2999.824710304	0.21345925799983
2	3030634	2999.824710304	0.11737377199984
2	3030634	2999.824710304	0.10426105199986
2	3030634	2999.824710304	0.113727681
2	3030634	2999.824710304	0.097316094000007
2	3030634	2999.824710304	0.20835288599983
2	3030634	2999.824710304	0.072894939999969
2	3030634	2999.824710304	0.13984502999983
2	3030634	2999.824710304	0.15819858299983
2	3030634	2999.824710304	0.18790675299988
2	3030634	2999.824710304	0.067527964999954
2	3030634	2999.824710304	0.12629102799997
2	3030634	2999.824710304	0.12001874799989
2	3030634	2999.824710304	0.074905429999944
2	3030634	2999.824710304	0.073533936999866
2	3030634	2999.824710304	0.20373332099985
2	3030634	2999.824710304	0.13128554399987
2	3030634	2999.824710304	0.20300614899998
2	3030634	2999.824710304	0.13196648899998
2	3030634	2999.824710304	0.19638728299992
2	3030634	2999.824710304	0.13994878599988
2	3030634	2999.824710304	0.081232014999841
2	3030634	2999.824710304	0.079214455999818
2	3030634	2999.824710304	0.070848900999863
2	3030634	2999.824710304	0.064916622999817
2	3030634	2999.824710304	0.12127208599986
2	3030634	2999.824710304	0.12694465699997
2	3030634	2999.824710304	0.07725926299986
2	3030634	2999.824710304	0.11845386799996
2	3030634	2999.824710304	0.11214723900002
3	3030634	2999.824710304	1
3	3030634	2999.824710304	1
3	3030634	2999.824710304	2
3	3030634	2999.824710304	2
3	3030634	2999.824710304	1
3	3030634	2999.824710304	2
3	3030634	2999.824710304	2
3	3030634	2999.824710304	2
3	3030634	2999.824710304	2
3	3030634	2999.824710304	2
3	3030634	2999.824710304	2
3	3030634	2999.824710304	2
3	3030634	2999.824710304	2
3	3030634	2999.824710304	3
3	3030634	2999.824710304	3
3	3030634	2999.824710304	3
3	3030634	2999.824710304	3
3	3030634	2999.824710304	3
3	3030634	2999.824710304	3
3	3030634	2999.824710304	3
3	3030634	2999.824710304	3
3	3030634	2999.824710304	3
3	3030634	2999.824710304	3
3	3030634	2999.824710304	3
3	3030634	2999.824710304	4
3	3030634	2999.824710304	3
3	3030634	2999.824710304	3
3	3030634	2999.824710304	3
3	3030634	2999.824710304	4
3	3030634	2999.824710304	3
3	3030634	2999.824710304	3
3	3030634	2999.824710304	4
3	3030634	2999.824710304	3
3	3030634	2999.824710304	4
3	3030634	2999.824710304	4
3	3030634	2999.824710304	4
3	3030634	2999.824710304	3
3	3030634	2999.824710304	4
3	3030634	2999.824710304	5
3	3030634	2999.824710304	5
3	3030634	2999.824710304	4
3	3030634	2999.824710304	4
3	3030634	2999.824710304	4
3	3030634	2999.824710304	4
3	3030634	2999.824710304	5
3	3030634	2999.824710304	4
3	3030634	2999.824710304	5
3	3030634	2999.824710304	5
3	3030634	2999.824710304	5
3	3030634	2999.824710304	5
3	3030634	2999.824710304	5
3	3030634	2999.824710304	6
3	3030634	2999.824710304	5
3	3030634	2999.824710304	5
3	3030634	2999.824710304	5
3	3030634	2999.824710304	5
3	3030634	2999.824710304	5
3	3030634	2999.824710304	5
3	3030634	2999.824710304	7
3	3030634	2999.824710304	5
3	3030634	2999.824710304	6
3	3030634	2999.824710304	4
3	3030634	2999.824710304	6
3	3030634	2999.824710304	6
3	3030634	2999.824710304	4
3	3030634	2999.824710304	4
3	3030634	2999.824710304	6
3	3030634	2999.824710304	4
3	3030634	2999.824710304	6
3	3030634	2999.824710304	5
3	3030634	2999.824710304	5
3	3030634	2999.824710304	6
3	3030634	2999.824710304	6
3	3030634	2999.824710304	4
3	3030634	2999.824710304	6
3	3030634	2999.824710304	4
3	3030634	2999.824710304	6
3	3030634	2999.824710304	6
3	3030634	2999.824710304	6
3	3030634	2999.824710304	7
3	3030634	2999.824710304	5
3	3030634	2999.824710304	6
3	3030634	2999.824710304	6
3	3030634	2999.824710304	6
3	3030634	2999.824710304	5
3	3030634	2999.824710304	6
3	3030634	2999.824710304	6
3	3030634	2999.824710304	8
3	3030634	2999.824710304	4
3	3030634	2999.824710304	6
3	3030634	2999.824710304	7
3	3030634	2999.824710304	7
3	3030634	2999.824710304	6
3	3030634	2999.824710304	6
3	3030634	2999.824710304	6
3	3030634	2999.824710304	7
3	3030634	2999.824710304	6
3	3030634	2999.824710304	4
3	3030634	2999.824710304	5
3	3030634	2999.824710304	4
3	3030634	2999.824710304	4
3	3030634	2999.824710304	6
3	3030634	2999.824710304	4
3	3030634	2999.824710304	2
3	3030634	2999.824710304	8
3	3030634	2999.824710304	4
3	3030634	2999.824710304	7
3	3030634	2999.824710304	7
3	3030634	2999.824710304	4
3	3030634	2999.824710304	2
3	3030634	2999.824710304	6
3	3030634	2999.824710304	7
3	3030634	2999.824710304	4
3	3030634	2999.824710304	4
3	3030634	2999.824710304	6
3	3030634	2999.824710304	7
3	3030634	2999.824710304	7
3	3030634	2999.824710304	7
3	3030634	2999.824710304	7
3	3030634	2999.824710304	6
3	3030634	2999.824710304	8
3	3030634	2999.824710304	6
3	3030634	2999.824710304	7
3	3030634	2999.824710304	6
3	3030634	2999.824710304	7
3	3030634	2999.824710304	7
3	3030634	2999.824710304	5
3	3030634	2999.824710304	6
3	3030634	2999.824710304	7
3	3030634	2999.824710304	5
3	3030634	2999.824710304	6
3	3030634	2999.824710304	5
3	3030634	2999.824710304	7
3	3030634	2999.824710304	7
3	3030634	2999.824710304	5
3	3030634	2999.824710304	4
3	3030634	2999.824710304	2
3	3030634	2999.824710304	7
3	3030634	2999.824710304	4
3	3030634	2999.824710304	7
3	3030634	2999.824710304	7
3	3030634	2999.824710304	4
3	3030634	2999.824710304	7
3	3030634	2999.824710304	8
3	3030634	2999.824710304	2
3	3030634	2999.824710304	7
3	3030634	2999.824710304	5
3	3030634	2999.824710304	5
3	3030634	2999.824710304	8
3	3030634	2999.824710304	8
3	3030634	2999.824710304	7
3	3030634	2999.824710304	7
3	3030634	2999.824710304	7
3	3030634	2999.824710304	5
3	3030634	2999.824710304	8
3	3030634	2999.824710304	8
3	3030634	2999.824710304	7
3	3030634	2999.824710304	7
3	3030634	2999.824710304	6
3	3030634	2999.824710304	8
3	3030634	2999.824710304	6
3	3030634	2999.824710304	5
3	3030634	2999.824710304	2
3	3030634	2999.824710304	5
3	3030634	2999.824710304	7
3	3030634	2999.824710304	7
3	3030634	2999.824710304	9
3	3030634	2999.824710304	5
3	3030634	2999.824710304	4
3	3030634	2999.824710304	7
3	3030634	2999.824710304	7
3	3030634	2999.824710304	7
3	3030634	2999.824710304	7
3	3030634	2999.824710304	6
3	3030634	2999.824710304	4
3	3030634	2999.824710304	8
3	3030634	2999.824710304	6
3	3030634	2999.824710304	7
3	3030634	2999.824710304	8
3	3030634	2999.824710304	7
3	3030634	2999.824710304	9
3	3030634	2999.824710304	4
3	3030634	2999.824710304	2
3	3030634	2999.824710304	5
3	3030634	2999.824710304	8
3	3030634	2999.824710304	6
3	3030634	2999.824710304	6
3	3030634	2999.824710304	6
3	3030634	2999.824710304	9
3	3030634	2999.824710304	9
3	3030634	2999.824710304	5
3	3030634	2999.824710304	5
3	3030634	2999.824710304	8
3	3030634	2999.824710304	5
3	3030634	2999.824710304	8
3	3030634	2999.824710304	4
3	3030634	2999.824710304	8
3	3030634	2999.824710304	7
3	3030634	2999.824710304	9
3	3030634	2999.824710304	6
3	3030634	2999.824710304	6
3	3030634	2999.824710304	7
3	3030634	2999.824710304	7
3	3030634	2999.824710304	2
3	3030634	2999.824710304	6
3	3030634	2999.824710304	6
3	3030634	2999.824710304	8
3	3030634	2999.824710304	2
3	3030634	2999.824710304	5
3	3030634	2999.824710304	5
3	3030634	2999.824710304	6
3	3030634	2999.824710304	5
3	3030634	2999.824710304	5
3	3030634	2999.824710304	9
3	3030634	2999.824710304	8
3	3030634	2999.824710304	9
3	3030634	2999.824710304	8
3	3030634	2999.824710304	7
3	3030634	2999.824710304	6
3	3030634	2999.824710304	6
3	3030634	2999.824710304	4
3	3030634	2999.824710304	9
3	3030634	2999.824710304	6
3	3030634	2999.824710304	3
3	3030634	2999.824710304	8
3	3030634	2999.824710304	8
3	3030634	2999.824710304	3
3	3030634	2999.824710304	6
3	3030634	2999.824710304	6
3	3030634	2999.824710304	5
3	3030634	2999.824710304	9
3	3030634	2999.824710304	7
3	3030634	2999.824710304	9
3	3030634	2999.824710304	5
3	3030634	2999.824710304	6
3	3030634	2999.824710304	7
3	3030634	2999.824710304	6
3	3030634	2999.824710304	3
3	3030634	2999.824710304	8
3	3030634	2999.824710304	4
3	3030634	2999.824710304	9
3	3030634	2999.824710304	6
3	3030634	2999.824710304	7
3	3030634	2999.824710304	7
3	3030634	2999.824710304	3
3	3030634	2999.824710304	6
3	3030634	2999.824710304	5
3	3030634	2999.824710304	7