version 2
run ATSConfig-0-20130622-12:04:31-13724
attr configname ATSConfig
attr datetime 20130622-12:04:31
attr experiment ATSConfig
attr inifile E:/2011112922/WorkStations/OMNet41/OverSim-20101103/simulations/omnetpp.ini
attr iterationvars ""
attr iterationvars2 $repetition=0
attr measurement ""
attr network oversim.underlay.simpleunderlay.SimpleUnderlayNetwork
attr processid 13724
attr repetition 0
attr replication #0
attr resultdir results
attr runnumber 0
attr seedset 0

vector 14  SimpleUnderlayNetwork.globalObserver.globalStatistics  "GlobalNodeList: Number of nodes"  ETV
vector 15  SimpleUnderlayNetwork.globalObserver.globalStatistics  Fanjing:ATS:maxdataTimeStamp0  ETV
vector 16  SimpleUnderlayNetwork.globalObserver.globalStatistics  Fanjing:ATS:maxdataHops0  ETV
vector 17  SimpleUnderlayNetwork.globalObserver.globalStatistics  Fanjing:ATS:maxdataDataNum0  ETV
vector 18  SimpleUnderlayNetwork.globalObserver.globalStatistics  Fanjing:ATS:maxdataTimeStamp1  ETV
vector 19  SimpleUnderlayNetwork.globalObserver.globalStatistics  Fanjing:ATS:maxdataHops1  ETV
vector 20  SimpleUnderlayNetwork.globalObserver.globalStatistics  Fanjing:ATS:maxdataDataNum1  ETV
vector 21  SimpleUnderlayNetwork.globalObserver.globalStatistics  Fanjing:ATS:maxdataTimeStamp2  ETV
vector 22  SimpleUnderlayNetwork.globalObserver.globalStatistics  Fanjing:ATS:maxdataHops2  ETV
vector 23  SimpleUnderlayNetwork.globalObserver.globalStatistics  Fanjing:ATS:maxdataDataNum2  ETV
vector 24  SimpleUnderlayNetwork.globalObserver.globalStatistics  Fanjing:ATS:maxdataTimeStamp  ETV
vector 25  SimpleUnderlayNetwork.globalObserver.globalStatistics  Fanjing:ATS:JoinTime  ETV
14	3018524	1550	500
14	3018934	1600	500
14	3019362	1650	500
14	3019772	1700	500
14	3020193	1750	500
14	3020620	1800	500
14	3021035	1850	500
14	3021440	1900	500
14	3021861	1950	500
14	3022273	2000	500
14	3022715	2050	500
14	3023131	2100	500
14	3023537	2150	500
14	3023931	2200	500
14	3024364	2250	500
14	3024811	2300	500
14	3025230	2350	500
14	3025635	2400	500
14	3026033	2450	500
14	3026456	2500	500
14	3026880	2550	500
14	3027313	2600	500
14	3027735	2650	500
14	3028135	2700	500
14	3028558	2750	500
14	3028993	2800	500
14	3029394	2850	500
14	3029819	2900	500
14	3030219	2950	500
15	3030642	2999.938903075	0.14666310000007
15	3030642	2999.938903075	0.16584553200005
15	3030642	2999.938903075	0.11441694600012
15	3030642	2999.938903075	0.11859256000002
15	3030642	2999.938903075	0.042280460000029
15	3030642	2999.938903075	0.19665686400003
15	3030642	2999.938903075	0.06589606700004
15	3030642	2999.938903075	0.060810709999942
15	3030642	2999.938903075	0.07436683800006
15	3030642	2999.938903075	0.047493984000084
15	3030642	2999.938903075	0.051488283000026
15	3030642	2999.938903075	0.22333827000011
15	3030642	2999.938903075	0.11145664900005
15	3030642	2999.938903075	0.058292500000107
15	3030642	2999.938903075	0.20455416999994
15	3030642	2999.938903075	0.21078041999999
15	3030642	2999.938903075	0.061543289999918
15	3030642	2999.938903075	0.20859552699994
15	3030642	2999.938903075	0.13069307699993
15	3030642	2999.938903075	0.12219102099994
15	3030642	2999.938903075	0.10936703600009
15	3030642	2999.938903075	0.061769978000029
15	3030642	2999.938903075	0.048936375000039
15	3030642	2999.938903075	0.14266959099996
15	3030642	2999.938903075	0.11975787999995
15	3030642	2999.938903075	0.13782474699997
15	3030642	2999.938903075	0.12454750899997
15	3030642	2999.938903075	0.097461161999945
15	3030642	2999.938903075	0.074075987000015
15	3030642	2999.938903075	0.091774808000082
15	3030642	2999.938903075	0.065150056999983
15	3030642	2999.938903075	0.077192959000058
15	3030642	2999.938903075	0.062324518999958
15	3030642	2999.938903075	0.087587020000001
15	3030642	2999.938903075	0.081820611000012
15	3030642	2999.938903075	0.21822700999996
15	3030642	2999.938903075	0.19431741299991
15	3030642	2999.938903075	0.060160515000007
15	3030642	2999.938903075	0.1025970180001
15	3030642	2999.938903075	0.13671845199997
15	3030642	2999.938903075	0.052664971000013
15	3030642	2999.938903075	0.1365298610001
15	3030642	2999.938903075	0.18609272200001
15	3030642	2999.938903075	0.20958895400008
15	3030642	2999.938903075	0.142289678
15	3030642	2999.938903075	0.14777753900012
15	3030642	2999.938903075	0.10401947200012
15	3030642	2999.938903075	0.14269886000011
15	3030642	2999.938903075	0.19655352299992
15	3030642	2999.938903075	0.092953206999937
15	3030642	2999.938903075	0.16073684799994
15	3030642	2999.938903075	0.22784910099995
15	3030642	2999.938903075	0.068071821000103
15	3030642	2999.938903075	0.11724535600001
15	3030642	2999.938903075	0.11125327100012
15	3030642	2999.938903075	0.11095792800006
15	3030642	2999.938903075	0.057890240000006
15	3030642	2999.938903075	0.10174587100005
15	3030642	2999.938903075	0.20655224500001
15	3030642	2999.938903075	0.12072322600011
15	3030642	2999.938903075	0.12241509399996
15	3030642	2999.938903075	0.069792939000081
15	3030642	2999.938903075	0.070436296000025
15	3030642	2999.938903075	0.20333949600013
15	3030642	2999.938903075	0.082619224999917
15	3030642	2999.938903075	0.07260933800012
15	3030642	2999.938903075	0.071521209999901
15	3030642	2999.938903075	0.078457533000119
15	3030642	2999.938903075	0.2191591589999
15	3030642	2999.938903075	0.10329894000006
15	3030642	2999.938903075	0.17358697899999
15	3030642	2999.938903075	0.072396232000074
15	3030642	2999.938903075	0.11376585099993
15	3030642	2999.938903075	0.069151607000094
15	3030642	2999.938903075	0.21619349399998
15	3030642	2999.938903075	0.12873917299999
15	3030642	2999.938903075	0.063539802999912
15	3030642	2999.938903075	0.12853568600008
15	3030642	2999.938903075	0.13326097699996
15	3030642	2999.938903075	0.19963521499994
15	3030642	2999.938903075	0.11839357100007
15	3030642	2999.938903075	0.20841167599997
15	3030642	2999.938903075	0.13739093499998
15	3030642	2999.938903075	0.1239778050001
15	3030642	2999.938903075	0.10659710599998
15	3030642	2999.938903075	0.21058209600005
15	3030642	2999.938903075	0.22804845299993
15	3030642	2999.938903075	0.067432878000091
15	3030642	2999.938903075	0.094111443999964
15	3030642	2999.938903075	0.13450037899997
15	3030642	2999.938903075	0.06723939099993
15	3030642	2999.938903075	0.14334795700006
15	3030642	2999.938903075	0.10223182799996
15	3030642	2999.938903075	0.14056090200006
15	3030642	2999.938903075	0.34145963700007
15	3030642	2999.938903075	0.096634620000032
15	3030642	2999.938903075	0.13137623800003
15	3030642	2999.938903075	0.071260379000023
15	3030642	2999.938903075	0.078860086000077
15	3030642	2999.938903075	0.071342819999927
15	3030642	2999.938903075	0.11362849600005
15	3030642	2999.938903075	0.20550494500003
15	3030642	2999.938903075	0.067611340999974
15	3030642	2999.938903075	0.216895174
15	3030642	2999.938903075	0.125321257
15	3030642	2999.938903075	0.19350875600003
15	3030642	2999.938903075	0.12806992700007
15	3030642	2999.938903075	0.14055560700012
15	3030642	2999.938903075	0.072689553999908
15	3030642	2999.938903075	0.20696361599994
15	3030642	2999.938903075	0.14839413899995
15	3030642	2999.938903075	0.11423897000009
15	3030642	2999.938903075	0.14310162400011
15	3030642	2999.938903075	0.065311944000086
15	3030642	2999.938903075	0.073803980000093
15	3030642	2999.938903075	0.10960154000009
15	3030642	2999.938903075	0.12024708400008
15	3030642	2999.938903075	0.13555837400008
15	3030642	2999.938903075	0.12720969800012
15	3030642	2999.938903075	0.13157305200002
15	3030642	2999.938903075	0.20314929000006
15	3030642	2999.938903075	0.06738443800009
15	3030642	2999.938903075	0.41340811300006
15	3030642	2999.938903075	0.12816156000008
15	3030642	2999.938903075	0.14929377299995
15	3030642	2999.938903075	0.10115480800005
15	3030642	2999.938903075	0.12544632899994
15	3030642	2999.938903075	0.203434367
15	3030642	2999.938903075	0.15744767799993
15	3030642	2999.938903075	0.16375331299992
15	3030642	2999.938903075	0.34635244099991
15	3030642	2999.938903075	0.11828760699996
15	3030642	2999.938903075	0.075917135000054
15	3030642	2999.938903075	0.067508334999957
15	3030642	2999.938903075	0.14663691600003
15	3030642	2999.938903075	0.11543456799996
15	3030642	2999.938903075	0.071932478999997
15	3030642	2999.938903075	0.126322824
15	3030642	2999.938903075	0.13280964099999
15	3030642	2999.938903075	0.14431804099991
15	3030642	2999.938903075	0.12974066099991
15	3030642	2999.938903075	0.10790818100008
15	3030642	2999.938903075	0.11491338499991
15	3030642	2999.938903075	0.064788345000125
15	3030642	2999.938903075	0.079096545000084
15	3030642	2999.938903075	0.07531252900003
15	3030642	2999.938903075	0.15197783200006
15	3030642	2999.938903075	0.16105335900011
15	3030642	2999.938903075	0.45630495299997
15	3030642	2999.938903075	0.28867749799997
15	3030642	2999.938903075	0.076444663000075
15	3030642	2999.938903075	0.13684247800006
15	3030642	2999.938903075	0.080557029999909
15	3030642	2999.938903075	0.12364656
15	3030642	2999.938903075	0.22489441900007
15	3030642	2999.938903075	0.17443690999994
15	3030642	2999.938903075	0.13219376799998
15	3030642	2999.938903075	0.11004190299991
15	3030642	2999.938903075	0.20476581699995
15	3030642	2999.938903075	0.067035046000001
15	3030642	2999.938903075	0.11594700399996
15	3030642	2999.938903075	0.11412543300003
15	3030642	2999.938903075	0.065613586999916
15	3030642	2999.938903075	0.11693116800006
15	3030642	2999.938903075	0.15034925300006
15	3030642	2999.938903075	0.082129097000006
15	3030642	2999.938903075	0.20482888600009
15	3030642	2999.938903075	0.15833509300001
15	3030642	2999.938903075	0.11052756599997
15	3030642	2999.938903075	0.1325125410001
15	3030642	2999.938903075	0.13174036500004
15	3030642	2999.938903075	0.19084593000002
15	3030642	2999.938903075	0.22626818499998
15	3030642	2999.938903075	0.12892489000001
15	3030642	2999.938903075	0.078428393999957
15	3030642	2999.938903075	0.2461715039999
15	3030642	2999.938903075	0.130926219
15	3030642	2999.938903075	0.12755843100012
15	3030642	2999.938903075	0.077344480999955
15	3030642	2999.938903075	0.12264569300009
15	3030642	2999.938903075	0.23486230899994
15	3030642	2999.938903075	0.072639711999955
15	3030642	2999.938903075	0.10316244000001
15	3030642	2999.938903075	0.15445091400011
15	3030642	2999.938903075	0.2225744939999
15	3030642	2999.938903075	0.11628829699998
15	3030642	2999.938903075	0.11811856899999
15	3030642	2999.938903075	0.22750091000012
15	3030642	2999.938903075	0.13696681600004
15	3030642	2999.938903075	0.11419148000004
15	3030642	2999.938903075	0.08380748400009
15	3030642	2999.938903075	0.12523727600001
15	3030642	2999.938903075	0.11655789499991
15	3030642	2999.938903075	0.19041613400009
15	3030642	2999.938903075	0.13693096299994
15	3030642	2999.938903075	0.22770616399998
15	3030642	2999.938903075	0.32932852799991
15	3030642	2999.938903075	0.14928925899994
15	3030642	2999.938903075	0.11614932099997
15	3030642	2999.938903075	0.070123521999903
15	3030642	2999.938903075	0.12401313000009
15	3030642	2999.938903075	0.13379379699995
15	3030642	2999.938903075	0.066415285999938
15	3030642	2999.938903075	0.097684314999924
15	3030642	2999.938903075	0.12842060200001
15	3030642	2999.938903075	0.07192881900005
15	3030642	2999.938903075	0.11350586499998
15	3030642	2999.938903075	0.065847388000066
15	3030642	2999.938903075	0.069944306000025
15	3030642	2999.938903075	0.10159743700001
15	3030642	2999.938903075	0.10336160499992
15	3030642	2999.938903075	0.071566689000065
15	3030642	2999.938903075	0.15755495100007
15	3030642	2999.938903075	0.21632915200007
15	3030642	2999.938903075	0.07250989299996
15	3030642	2999.938903075	0.06830496800012
15	3030642	2999.938903075	0.13011257400012
15	3030642	2999.938903075	0.18470648500011
15	3030642	2999.938903075	0.15032944099994
15	3030642	2999.938903075	0.074780868000062
15	3030642	2999.938903075	0.2017752270001
15	3030642	2999.938903075	0.11924557499992
15	3030642	2999.938903075	0.081983263999973
15	3030642	2999.938903075	0.15190908199997
15	3030642	2999.938903075	0.078571548000127
15	3030642	2999.938903075	0.06794861000003
15	3030642	2999.938903075	0.070596614000124
15	3030642	2999.938903075	0.11067350300004
15	3030642	2999.938903075	0.074939589999985
15	3030642	2999.938903075	0.074602525000046
15	3030642	2999.938903075	0.13952558300002
15	3030642	2999.938903075	0.065842443000065
15	3030642	2999.938903075	0.22298148999994
15	3030642	2999.938903075	0.10835056700012
15	3030642	2999.938903075	0.10125477299994
15	3030642	2999.938903075	0.10324361199991
15	3030642	2999.938903075	0.075828278000017
15	3030642	2999.938903075	0.082427311999936
15	3030642	2999.938903075	0.19524394900009
15	3030642	2999.938903075	0.070481411999936
15	3030642	2999.938903075	0.066084006999972
15	3030642	2999.938903075	0.069281458999967
15	3030642	2999.938903075	0.14083492600003
15	3030642	2999.938903075	0.069781953000074
15	3030642	2999.938903075	0.14411883399998
15	3030642	2999.938903075	0.093313549999948
15	3030642	2999.938903075	0.12262248499997
15	3030642	2999.938903075	0.10687531999997
15	3030642	2999.938903075	0.077875787000039
15	3030642	2999.938903075	0.067635795000115
15	3030642	2999.938903075	0.21831240799997
15	3030642	2999.938903075	0.12622836600008
15	3030642	2999.938903075	0.07107771799997
15	3030642	2999.938903075	0.19290994400012
15	3030642	2999.938903075	0.11288372500007
15	3030642	2999.938903075	0.17150925700003
15	3030642	2999.938903075	0.1537889870001
15	3030642	2999.938903075	0.099381862999962
15	3030642	2999.938903075	0.22840847399993
15	3030642	2999.938903075	0.081901360000074
15	3030642	2999.938903075	0.13074412500009
15	3030642	2999.938903075	0.19532055600007
15	3030642	2999.938903075	0.073535555000035
15	3030642	2999.938903075	0.13599358900001
15	3030642	2999.938903075	0.082349732000012
15	3030642	2999.938903075	0.094637049000085
15	3030642	2999.938903075	0.099459819000003
15	3030642	2999.938903075	0.13081214099998
15	3030642	2999.938903075	0.06781278099993
15	3030642	2999.938903075	0.10859605499991
15	3030642	2999.938903075	0.22547187500004
15	3030642	2999.938903075	0.20429152800011
15	3030642	2999.938903075	0.13231463700004
15	3030642	2999.938903075	0.12271774100009
15	3030642	2999.938903075	0.11777430500001
15	3030642	2999.938903075	0.21391945000005
15	3030642	2999.938903075	0.10653084499995
15	3030642	2999.938903075	0.074055743999907
15	3030642	2999.938903075	0.15125563800007
15	3030642	2999.938903075	0.11751067299997
15	3030642	2999.938903075	0.14497359000006
15	3030642	2999.938903075	0.1080417359999
15	3030642	2999.938903075	0.099571240999921
15	3030642	2999.938903075	0.12195636899992
15	3030642	2999.938903075	0.084253941000043
15	3030642	2999.938903075	0.071839748999992
15	3030642	2999.938903075	0.21004698199999
15	3030642	2999.938903075	0.17992697299997
15	3030642	2999.938903075	0.074646995999956
15	3030642	2999.938903075	0.19704066300005
15	3030642	2999.938903075	0.090413964999925
15	3030642	2999.938903075	0.11713842800009
15	3030642	2999.938903075	0.11397660800003
15	3030642	2999.938903075	0.12146639399998
15	3030642	2999.938903075	0.071679843000084
15	3030642	2999.938903075	0.078010801000119
15	3030642	2999.938903075	0.14536854400012
15	3030642	2999.938903075	0.22373795699991
15	3030642	2999.938903075	0.10226797199994
15	3030642	2999.938903075	0.13313575699999
15	3030642	2999.938903075	0.197556523
15	3030642	2999.938903075	0.081368630000043
15	3030642	2999.938903075	0.10511107799994
15	3030642	2999.938903075	0.118845276
15	3030642	2999.938903075	0.10763027400003
15	3030642	2999.938903075	0.15335065199997
15	3030642	2999.938903075	0.10740591000013
15	3030642	2999.938903075	0.1992476800001
15	3030642	2999.938903075	0.14216443800001
15	3030642	2999.938903075	0.21283918600011
15	3030642	2999.938903075	0.091386470000089
15	3030642	2999.938903075	0.16957680700011
15	3030642	2999.938903075	0.091398878000064
15	3030642	2999.938903075	0.14566834300012
15	3030642	2999.938903075	0.15431830500006
15	3030642	2999.938903075	0.11874157700004
15	3030642	2999.938903075	0.089058667000018
15	3030642	2999.938903075	0.22319017199993
15	3030642	2999.938903075	0.07257265599992
15	3030642	2999.938903075	0.072954378000077
15	3030642	2999.938903075	0.12236989000007
15	3030642	2999.938903075	0.13239457400005
15	3030642	2999.938903075	0.073255193000023
15	3030642	2999.938903075	0.119646547
15	3030642	2999.938903075	0.073173115999907
15	3030642	2999.938903075	0.20152629900008
15	3030642	2999.938903075	0.074173529000063
15	3030642	2999.938903075	0.066006119000122
15	3030642	2999.938903075	0.14562997899998
15	3030642	2999.938903075	0.13310315600006
15	3030642	2999.938903075	0.2063689659999
15	3030642	2999.938903075	0.080336951999925
15	3030642	2999.938903075	0.07981557800008
15	3030642	2999.938903075	0.14966228399999
15	3030642	2999.938903075	0.20345307599996
15	3030642	2999.938903075	0.072130764000121
15	3030642	2999.938903075	0.22870025099996
15	3030642	2999.938903075	0.08216137799991
15	3030642	2999.938903075	0.12333034700009
15	3030642	2999.938903075	0.11921504299994
15	3030642	2999.938903075	0.12449343000003
15	3030642	2999.938903075	0.21005681599991
15	3030642	2999.938903075	0.136787594
15	3030642	2999.938903075	0.071005631999924
15	3030642	2999.938903075	0.077739668000049
15	3030642	2999.938903075	0.24332775900007
15	3030642	2999.938903075	0.10754813900007
15	3030642	2999.938903075	0.1072113109999
15	3030642	2999.938903075	0.25194372400006
15	3030642	2999.938903075	0.069443354999976
15	3030642	2999.938903075	0.11325565300012
15	3030642	2999.938903075	0.15237924899998
15	3030642	2999.938903075	0.10617754200007
15	3030642	2999.938903075	0.096961768000028
15	3030642	2999.938903075	0.080001907999986
15	3030642	2999.938903075	0.072606364999956
15	3030642	2999.938903075	0.17449592299999
15	3030642	2999.938903075	0.07291526500012
15	3030642	2999.938903075	0.067007605000072
15	3030642	2999.938903075	0.15018356099995
15	3030642	2999.938903075	0.080439497000043
15	3030642	2999.938903075	0.20408094000004
15	3030642	2999.938903075	0.13205475299992
15	3030642	2999.938903075	0.078999181999961
15	3030642	2999.938903075	0.12773177899999
15	3030642	2999.938903075	0.33145234900007
15	3030642	2999.938903075	0.066144393000059
15	3030642	2999.938903075	0.23538056100006
15	3030642	2999.938903075	0.07140395600004
15	3030642	2999.938903075	0.20345093700007
15	3030642	2999.938903075	0.21875009099995
15	3030642	2999.938903075	0.29086375800011
15	3030642	2999.938903075	0.19733013900009
15	3030642	2999.938903075	0.075995677000037
15	3030642	2999.938903075	0.21002507100002
15	3030642	2999.938903075	0.10804933899999
15	3030642	2999.938903075	0.082729099000062
15	3030642	2999.938903075	0.1213193829999
15	3030642	2999.938903075	0.2213987770001
15	3030642	2999.938903075	0.090395070000113
15	3030642	2999.938903075	0.075863137999931
15	3030642	2999.938903075	0.11187603100007
15	3030642	2999.938903075	0.11469558299996
15	3030642	2999.938903075	0.10567831799995
15	3030642	2999.938903075	0.074130990999947
15	3030642	2999.938903075	0.21728604800001
15	3030642	2999.938903075	0.15099521499997
15	3030642	2999.938903075	0.13368195299995
15	3030642	2999.938903075	0.08723107600008
15	3030642	2999.938903075	0.13083928900005
15	3030642	2999.938903075	0.13484085699997
15	3030642	2999.938903075	0.10210888699999
15	3030642	2999.938903075	0.14200677300005
15	3030642	2999.938903075	0.078519894999999
15	3030642	2999.938903075	0.17342142000007
15	3030642	2999.938903075	0.12419433900004
15	3030642	2999.938903075	0.12643737600001
15	3030642	2999.938903075	0.14214592899998
15	3030642	2999.938903075	0.1162454360001
15	3030642	2999.938903075	0.11495987900003
15	3030642	2999.938903075	0.069364089999908
15	3030642	2999.938903075	0.23232986900007
15	3030642	2999.938903075	0.22330846
15	3030642	2999.938903075	0.13522248100003
15	3030642	2999.938903075	0.13162657800012
15	3030642	2999.938903075	0.2652153890001
15	3030642	2999.938903075	0.066341472999966
15	3030642	2999.938903075	0.12441634900006
15	3030642	2999.938903075	0.22396505100005
15	3030642	2999.938903075	0.13470287900009
15	3030642	2999.938903075	0.066253135000125
15	3030642	2999.938903075	0.103779067
15	3030642	2999.938903075	0.078369670000029
15	3030642	2999.938903075	0.12029352200011
15	3030642	2999.938903075	0.075063300000011
15	3030642	2999.938903075	0.073948259999952
15	3030642	2999.938903075	0.21362058699992
15	3030642	2999.938903075	0.17265437700007
15	3030642	2999.938903075	0.11100079800008
15	3030642	2999.938903075	0.066799094000089
15	3030642	2999.938903075	0.20481096200001
15	3030642	2999.938903075	0.072193147999997
15	3030642	2999.938903075	0.14801456600003
15	3030642	2999.938903075	0.19536785200012
15	3030642	2999.938903075	0.23484605900012
15	3030642	2999.938903075	0.075383317999922
15	3030642	2999.938903075	0.21558457600008
15	3030642	2999.938903075	0.080631752000045
15	3030642	2999.938903075	0.075838575000034
15	3030642	2999.938903075	0.076151064999976
15	3030642	2999.938903075	0.075766997000073
15	3030642	2999.938903075	0.20195597499992
15	3030642	2999.938903075	0.135460448
15	3030642	2999.938903075	0.12363402100004
15	3030642	2999.938903075	0.14642265399993
15	3030642	2999.938903075	0.078087173000085
15	3030642	2999.938903075	0.12124304200006
15	3030642	2999.938903075	0.083312489000036
15	3030642	2999.938903075	0.22306934700009
15	3030642	2999.938903075	0.12295814399999
15	3030642	2999.938903075	0.072567744000025
15	3030642	2999.938903075	0.11124629899996
15	3030642	2999.938903075	0.079205299000023
15	3030642	2999.938903075	0.11689008999997
15	3030642	2999.938903075	0.074537460000101
15	3030642	2999.938903075	0.08027244799996
15	3030642	2999.938903075	0.11513975499997
15	3030642	2999.938903075	0.10724579399994
15	3030642	2999.938903075	0.1889526540001
15	3030642	2999.938903075	0.083484007999914
15	3030642	2999.938903075	0.08998981700006
15	3030642	2999.938903075	0.070771013000012
15	3030642	2999.938903075	0.1396961370001
15	3030642	2999.938903075	0.084935253999902
15	3030642	2999.938903075	0.089691001000119
15	3030642	2999.938903075	0.074348823000037
15	3030642	2999.938903075	0.066270606999979
15	3030642	2999.938903075	0.14554714600013
15	3030642	2999.938903075	0.21215054100003
15	3030642	2999.938903075	0.19449505700004
15	3030642	2999.938903075	0.1186740170001
15	3030642	2999.938903075	0.074352024000063
15	3030642	2999.938903075	0.070876537000004
15	3030642	2999.938903075	0.076457210999934
15	3030642	2999.938903075	0.07052323500011
15	3030642	2999.938903075	0.097320628000034
15	3030642	2999.938903075	0.13241969299997
15	3030642	2999.938903075	0.078896296000039
15	3030642	2999.938903075	0.22730359100001
15	3030642	2999.938903075	0.071719260000009
15	3030642	2999.938903075	0.12946158399996
15	3030642	2999.938903075	0.094305808999934
15	3030642	2999.938903075	0.113100003
15	3030642	2999.938903075	0.424056608
15	3030642	2999.938903075	0.084660347999943
15	3030642	2999.938903075	0.11746145999996
15	3030642	2999.938903075	0.071492213000056
15	3030642	2999.938903075	0.12766211000007
15	3030642	2999.938903075	0.20987611999999
15	3030642	2999.938903075	0.11767371499991
15	3030642	2999.938903075	0.072478296000099
15	3030642	2999.938903075	0.069160583999974
15	3030642	2999.938903075	0.13763251299997
15	3030642	2999.938903075	0.067143952999913
15	3030642	2999.938903075	0.21675737800001
15	3030642	2999.938903075	0.11189803599996
15	3030642	2999.938903075	0.13701671000013
15	3030642	2999.938903075	0.12728817400011
15	3030642	2999.938903075	0.12694584499991
15	3030642	2999.938903075	0.14170603100001
15	3030642	2999.938903075	0.12534114000005
15	3030642	2999.938903075	0.12549334000005
15	3030642	2999.938903075	0.074279707999949
15	3030642	2999.938903075	0.1254828860001
15	3030642	2999.938903075	0.21878930599996
15	3030642	2999.938903075	0.12204975000009
15	3030642	2999.938903075	0.074724944000081
15	3030642	2999.938903075	0.0731050280001
15	3030642	2999.938903075	0.11395429100003
16	3030642	2999.938903075	1
16	3030642	2999.938903075	1
16	3030642	2999.938903075	2
16	3030642	2999.938903075	2
16	3030642	2999.938903075	1
16	3030642	2999.938903075	2
16	3030642	2999.938903075	2
16	3030642	2999.938903075	2
16	3030642	2999.938903075	2
16	3030642	2999.938903075	2
16	3030642	2999.938903075	2
16	3030642	2999.938903075	2
16	3030642	2999.938903075	2
16	3030642	2999.938903075	3
16	3030642	2999.938903075	3
16	3030642	2999.938903075	3
16	3030642	2999.938903075	3
16	3030642	2999.938903075	3
16	3030642	2999.938903075	3
16	3030642	2999.938903075	3
16	3030642	2999.938903075	3
16	3030642	2999.938903075	3
16	3030642	2999.938903075	3
16	3030642	2999.938903075	3
16	3030642	2999.938903075	4
16	3030642	2999.938903075	3
16	3030642	2999.938903075	3
16	3030642	2999.938903075	3
16	3030642	2999.938903075	4
16	3030642	2999.938903075	3
16	3030642	2999.938903075	3
16	3030642	2999.938903075	4
16	3030642	2999.938903075	3
16	3030642	2999.938903075	4
16	3030642	2999.938903075	4
16	3030642	2999.938903075	4
16	3030642	2999.938903075	3
16	3030642	2999.938903075	4
16	3030642	2999.938903075	5
16	3030642	2999.938903075	5
16	3030642	2999.938903075	4
16	3030642	2999.938903075	4
16	3030642	2999.938903075	4
16	3030642	2999.938903075	4
16	3030642	2999.938903075	5
16	3030642	2999.938903075	4
16	3030642	2999.938903075	5
16	3030642	2999.938903075	5
16	3030642	2999.938903075	5
16	3030642	2999.938903075	5
16	3030642	2999.938903075	5
16	3030642	2999.938903075	6
16	3030642	2999.938903075	5
16	3030642	2999.938903075	5
16	3030642	2999.938903075	5
16	3030642	2999.938903075	5
16	3030642	2999.938903075	5
16	3030642	2999.938903075	5
16	3030642	2999.938903075	6
16	3030642	2999.938903075	5
16	3030642	2999.938903075	6
16	3030642	2999.938903075	4
16	3030642	2999.938903075	6
16	3030642	2999.938903075	6
16	3030642	2999.938903075	4
16	3030642	2999.938903075	4
16	3030642	2999.938903075	6
16	3030642	2999.938903075	4
16	3030642	2999.938903075	6
16	3030642	2999.938903075	5
16	3030642	2999.938903075	5
16	3030642	2999.938903075	6
16	3030642	2999.938903075	6
16	3030642	2999.938903075	4
16	3030642	2999.938903075	6
16	3030642	2999.938903075	5
16	3030642	2999.938903075	6
16	3030642	2999.938903075	6
16	3030642	2999.938903075	6
16	3030642	2999.938903075	6
16	3030642	2999.938903075	5
16	3030642	2999.938903075	6
16	3030642	2999.938903075	6
16	3030642	2999.938903075	6
16	3030642	2999.938903075	5
16	3030642	2999.938903075	6
16	3030642	2999.938903075	6
16	3030642	2999.938903075	7
16	3030642	2999.938903075	4
16	3030642	2999.938903075	6
16	3030642	2999.938903075	7
16	3030642	2999.938903075	7
16	3030642	2999.938903075	6
16	3030642	2999.938903075	6
16	3030642	2999.938903075	6
16	3030642	2999.938903075	7
16	3030642	2999.938903075	6
16	3030642	2999.938903075	4
16	3030642	2999.938903075	4
16	3030642	2999.938903075	4
16	3030642	2999.938903075	5
16	3030642	2999.938903075	6
16	3030642	2999.938903075	4
16	3030642	2999.938903075	6
16	3030642	2999.938903075	7
16	3030642	2999.938903075	5
16	3030642	2999.938903075	6
16	3030642	2999.938903075	6
16	3030642	2999.938903075	6
16	3030642	2999.938903075	7
16	3030642	2999.938903075	4
16	3030642	2999.938903075	6
16	3030642	2999.938903075	6
16	3030642	2999.938903075	7
16	3030642	2999.938903075	4
16	3030642	2999.938903075	8
16	3030642	2999.938903075	6
16	3030642	2999.938903075	7
16	3030642	2999.938903075	6
16	3030642	2999.938903075	7
16	3030642	2999.938903075	7
16	3030642	2999.938903075	7
16	3030642	2999.938903075	3
16	3030642	2999.938903075	6
16	3030642	2999.938903075	6
16	3030642	2999.938903075	8
16	3030642	2999.938903075	7
16	3030642	2999.938903075	6
16	3030642	2999.938903075	4
16	3030642	2999.938903075	7
16	3030642	2999.938903075	5
16	3030642	2999.938903075	8
16	3030642	2999.938903075	4
16	3030642	2999.938903075	4
16	3030642	2999.938903075	7
16	3030642	2999.938903075	6
16	3030642	2999.938903075	7
16	3030642	2999.938903075	7
16	3030642	2999.938903075	7
16	3030642	2999.938903075	4
16	3030642	2999.938903075	7
16	3030642	2999.938903075	6
16	3030642	2999.938903075	5
16	3030642	2999.938903075	7
16	3030642	2999.938903075	4
16	3030642	2999.938903075	4
16	3030642	2999.938903075	4
16	3030642	2999.938903075	7
16	3030642	2999.938903075	3
16	3030642	2999.938903075	2
16	3030642	2999.938903075	7
16	3030642	2999.938903075	6
16	3030642	2999.938903075	5
16	3030642	2999.938903075	7
16	3030642	2999.938903075	6
16	3030642	2999.938903075	2
16	3030642	2999.938903075	7
16	3030642	2999.938903075	6
16	3030642	2999.938903075	7
16	3030642	2999.938903075	4
16	3030642	2999.938903075	7
16	3030642	2999.938903075	6
16	3030642	2999.938903075	8
16	3030642	2999.938903075	6
16	3030642	2999.938903075	7
16	3030642	2999.938903075	5
16	3030642	2999.938903075	7
16	3030642	2999.938903075	6
16	3030642	2999.938903075	9
16	3030642	2999.938903075	8
16	3030642	2999.938903075	7
16	3030642	2999.938903075	2
16	3030642	2999.938903075	5
16	3030642	2999.938903075	7
16	3030642	2999.938903075	8
16	3030642	2999.938903075	8
16	3030642	2999.938903075	7
16	3030642	2999.938903075	5
16	3030642	2999.938903075	8
16	3030642	2999.938903075	6
16	3030642	2999.938903075	6
16	3030642	2999.938903075	7
16	3030642	2999.938903075	5
16	3030642	2999.938903075	5
16	3030642	2999.938903075	8
16	3030642	2999.938903075	6
16	3030642	2999.938903075	6
16	3030642	2999.938903075	4
16	3030642	2999.938903075	7
16	3030642	2999.938903075	6
16	3030642	2999.938903075	5
16	3030642	2999.938903075	8
16	3030642	2999.938903075	6
16	3030642	2999.938903075	2
16	3030642	2999.938903075	7
16	3030642	2999.938903075	7
16	3030642	2999.938903075	9
16	3030642	2999.938903075	4
16	3030642	2999.938903075	6
16	3030642	2999.938903075	9
16	3030642	2999.938903075	6
16	3030642	2999.938903075	5
16	3030642	2999.938903075	8
16	3030642	2999.938903075	4
16	3030642	2999.938903075	6
16	3030642	2999.938903075	8
16	3030642	2999.938903075	6
16	3030642	2999.938903075	8
16	3030642	2999.938903075	5
16	3030642	2999.938903075	7
16	3030642	2999.938903075	8
16	3030642	2999.938903075	8
16	3030642	2999.938903075	6
16	3030642	2999.938903075	5
16	3030642	2999.938903075	5
16	3030642	2999.938903075	8
16	3030642	2999.938903075	7
16	3030642	2999.938903075	2
16	3030642	2999.938903075	4
16	3030642	2999.938903075	8
16	3030642	2999.938903075	7
16	3030642	2999.938903075	7
16	3030642	2999.938903075	8