version 2
run ATSConfig-large-0-0-20130630-15:16:09-4424
attr configname ATSConfig-large-0
attr datetime 20130630-15:16:09
attr experiment ATSConfig-large-0
attr inifile E:/2011112922/WorkStations/OMNet41/OverSim-20101103/simulations/omnetpp.ini
attr iterationvars ""
attr iterationvars2 $repetition=0
attr measurement ""
attr network oversim.underlay.simpleunderlay.SimpleUnderlayNetwork
attr processid 4424
attr repetition 0
attr replication #0
attr resultdir results
attr runnumber 0
attr seedset 0

vector 27  SimpleUnderlayNetwork.globalObserver.globalStatistics  "GlobalNodeList: Number of nodes"  ETV
vector 28  SimpleUnderlayNetwork.globalObserver.globalStatistics  Fanjing:ATS:maxdataTimeStamp0  ETV
vector 29  SimpleUnderlayNetwork.globalObserver.globalStatistics  Fanjing:ATS:maxdataHops0  ETV
vector 30  SimpleUnderlayNetwork.globalObserver.globalStatistics  Fanjing:ATS:maxdataDataNum0  ETV
vector 31  SimpleUnderlayNetwork.globalObserver.globalStatistics  Fanjing:ATS:maxdataTimeStamp1  ETV
vector 32  SimpleUnderlayNetwork.globalObserver.globalStatistics  Fanjing:ATS:maxdataHops1  ETV
vector 33  SimpleUnderlayNetwork.globalObserver.globalStatistics  Fanjing:ATS:maxdataDataNum1  ETV
vector 34  SimpleUnderlayNetwork.globalObserver.globalStatistics  Fanjing:ATS:maxdataTimeStamp2  ETV
vector 35  SimpleUnderlayNetwork.globalObserver.globalStatistics  Fanjing:ATS:maxdataHops2  ETV
vector 36  SimpleUnderlayNetwork.globalObserver.globalStatistics  Fanjing:ATS:maxdataDataNum2  ETV
vector 37  SimpleUnderlayNetwork.globalObserver.globalStatistics  Fanjing:ATS:maxdataTimeStamp  ETV
vector 38  SimpleUnderlayNetwork.globalObserver.globalStatistics  Fanjing:ATS:JoinTime  ETV
27	3018328	1500	500
27	3018754	1550	500
27	3019152	1600	500
27	3019577	1650	500
27	3020011	1700	500
27	3020432	1750	500
27	3020847	1800	500
27	3021256	1850	500
27	3021674	1900	500
27	3022100	1950	500
27	3022516	2000	500
27	3022936	2050	500
27	3023346	2100	500
27	3023764	2150	500
27	3024179	2200	500
27	3024595	2250	500
27	3025008	2300	500
27	3025429	2350	500
27	3025863	2400	500
27	3026289	2450	500
27	3026691	2500	500
27	3027098	2550	500
27	3027513	2600	500
27	3027948	2650	500
27	3028374	2700	500
27	3028789	2750	500
27	3029190	2800	500
27	3029621	2850	500
27	3030052	2900	500
27	3030463	2950	500
28	3030880	2999.886081009	0.12828104300002
28	3030880	2999.886081009	0.16648465799994
28	3030880	2999.886081009	0.11246095399997
28	3030880	2999.886081009	0.11956011699999
28	3030880	2999.886081009	0.040243816999919
28	3030880	2999.886081009	0.18398953399992
28	3030880	2999.886081009	0.065264040000102
28	3030880	2999.886081009	0.058927838000045
28	3030880	2999.886081009	0.071416446000057
28	3030880	2999.886081009	0.045376402000102
28	3030880	2999.886081009	0.049401902
28	3030880	2999.886081009	0.22660832499992
28	3030880	2999.886081009	0.11133768600007
28	3030880	2999.886081009	0.056448384000078
28	3030880	2999.886081009	0.1948496519999
28	3030880	2999.886081009	0.19147761399995
28	3030880	2999.886081009	0.057250490000115
28	3030880	2999.886081009	0.21334576599997
28	3030880	2999.886081009	0.12405529200009
28	3030880	2999.886081009	0.12761452099994
28	3030880	2999.886081009	0.10722074899991
28	3030880	2999.886081009	0.058199766999905
28	3030880	2999.886081009	0.046776524000052
28	3030880	2999.886081009	0.13255294200007
28	3030880	2999.886081009	0.11406233799994
28	3030880	2999.886081009	0.1216305160001
28	3030880	2999.886081009	0.28087074299992
28	3030880	2999.886081009	0.094436406000113
28	3030880	2999.886081009	0.070109776999971
28	3030880	2999.886081009	0.090499843000089
28	3030880	2999.886081009	0.066069289000097
28	3030880	2999.886081009	0.077053250000063
28	3030880	2999.886081009	0.060978234000004
28	3030880	2999.886081009	0.086213848999932
28	3030880	2999.886081009	0.10013215200001
28	3030880	2999.886081009	0.21333619699999
28	3030880	2999.886081009	0.14827254300008
28	3030880	2999.886081009	0.062200732000065
28	3030880	2999.886081009	0.063857226999971
28	3030880	2999.886081009	0.19835112300007
28	3030880	2999.886081009	0.22223932700012
28	3030880	2999.886081009	0.056262611999955
28	3030880	2999.886081009	0.060929408999982
28	3030880	2999.886081009	0.19724957800008
28	3030880	2999.886081009	0.098186595000016
28	3030880	2999.886081009	0.062342024999907
28	3030880	2999.886081009	0.151569483
28	3030880	2999.886081009	0.22129160100008
28	3030880	2999.886081009	0.12534615300001
28	3030880	2999.886081009	0.060829641000055
28	3030880	2999.886081009	0.20141493100004
28	3030880	2999.886081009	0.054116678000128
28	3030880	2999.886081009	0.14789264599995
28	3030880	2999.886081009	0.16914149500008
28	3030880	2999.886081009	0.11438397699999
28	3030880	2999.886081009	0.11608656199996
28	3030880	2999.886081009	0.11581928600003
28	3030880	2999.886081009	0.19551258999991
28	3030880	2999.886081009	0.199427044
28	3030880	2999.886081009	0.056150849000005
28	3030880	2999.886081009	0.11043193499995
28	3030880	2999.886081009	0.060868037000091
28	3030880	2999.886081009	0.075002299000062
28	3030880	2999.886081009	0.1078822290001
28	3030880	2999.886081009	0.093867498000009
28	3030880	2999.886081009	0.082816052999988
28	3030880	2999.886081009	0.079487859999972
28	3030880	2999.886081009	0.13422679399991
28	3030880	2999.886081009	0.2233651680001
28	3030880	2999.886081009	0.11891627499995
28	3030880	2999.886081009	0.13289168799997
28	3030880	2999.886081009	0.1057996720001
28	3030880	2999.886081009	0.21375491100002
28	3030880	2999.886081009	0.14606289299991
28	3030880	2999.886081009	0.26711073299998
28	3030880	2999.886081009	0.071837595000034
28	3030880	2999.886081009	0.07915468200008
28	3030880	2999.886081009	0.21762593400013
28	3030880	2999.886081009	0.071783328000038
28	3030880	2999.886081009	0.063790712000127
28	3030880	2999.886081009	0.071294452000075
28	3030880	2999.886081009	0.11218439899994
28	3030880	2999.886081009	0.11563088999992
28	3030880	2999.886081009	0.073093397000093
28	3030880	2999.886081009	0.15280577699991
28	3030880	2999.886081009	0.128215963
28	3030880	2999.886081009	0.10639703300012
28	3030880	2999.886081009	0.071000520000098
28	3030880	2999.886081009	0.10416091100001
28	3030880	2999.886081009	0.13122128600003
28	3030880	2999.886081009	0.09380183899998
28	3030880	2999.886081009	0.10966060400006
28	3030880	2999.886081009	0.070463431999997
28	3030880	2999.886081009	0.19303953200006
28	3030880	2999.886081009	0.11754783700007
28	3030880	2999.886081009	0.13550033699994
28	3030880	2999.886081009	0.10660938399997
28	3030880	2999.886081009	0.062009693999926
28	3030880	2999.886081009	0.11899277199996
28	3030880	2999.886081009	0.12996366400012
28	3030880	2999.886081009	0.11734274200012
28	3030880	2999.886081009	0.15049886599991
28	3030880	2999.886081009	0.22153931000003
28	3030880	2999.886081009	0.21539664600004
28	3030880	2999.886081009	0.22160489900011
28	3030880	2999.886081009	0.09416226999997
28	3030880	2999.886081009	0.15178461300002
28	3030880	2999.886081009	0.085290987999997
28	3030880	2999.886081009	0.11948051900004
28	3030880	2999.886081009	0.12871932100006
28	3030880	2999.886081009	0.16953320700009
28	3030880	2999.886081009	0.089038141999936
28	3030880	2999.886081009	0.10570003800012
28	3030880	2999.886081009	0.12068090699995
28	3030880	2999.886081009	0.082637878000014
28	3030880	2999.886081009	0.11346286599996
28	3030880	2999.886081009	0.11803691399996
28	3030880	2999.886081009	0.21595120400002
28	3030880	2999.886081009	0.082120387000032
28	3030880	2999.886081009	0.073582390999945
28	3030880	2999.886081009	0.063435144000096
28	3030880	2999.886081009	0.12417580400006
28	3030880	2999.886081009	0.067839899000091
28	3030880	2999.886081009	0.15030425400005
28	3030880	2999.886081009	0.068084164000084
28	3030880	2999.886081009	0.21231758900012
28	3030880	2999.886081009	0.090438823000113
28	3030880	2999.886081009	0.059191663000092
28	3030880	2999.886081009	0.22546934799993
28	3030880	2999.886081009	0.10654526200005
28	3030880	2999.886081009	0.068002089999936
28	3030880	2999.886081009	0.068917737999982
28	3030880	2999.886081009	0.099254838999968
28	3030880	2999.886081009	0.11326764399996
28	3030880	2999.886081009	0.065235087000019
28	3030880	2999.886081009	0.14589441399994
28	3030880	2999.886081009	0.10645170800012
28	3030880	2999.886081009	0.13421933800009
28	3030880	2999.886081009	0.17544865800005
28	3030880	2999.886081009	0.18357060500011
28	3030880	2999.886081009	0.06662520000009
28	3030880	2999.886081009	0.12044457599995
28	3030880	2999.886081009	0.072879609999973
28	3030880	2999.886081009	0.11120276800011
28	3030880	2999.886081009	0.078257375000021
28	3030880	2999.886081009	0.10497194300001
28	3030880	2999.886081009	0.057970959999921
28	3030880	2999.886081009	0.14370519599993
28	3030880	2999.886081009	0.059972581000011
28	3030880	2999.886081009	0.22605275499996
28	3030880	2999.886081009	0.0693753810001
28	3030880	2999.886081009	0.122840559
28	3030880	2999.886081009	0.061967142999947
28	3030880	2999.886081009	0.15009704399995
28	3030880	2999.886081009	0.26181953800005
28	3030880	2999.886081009	0.21641458299996
28	3030880	2999.886081009	0.069740435000085
28	3030880	2999.886081009	0.090760759999966
28	3030880	2999.886081009	0.072392177999973
28	3030880	2999.886081009	0.16825050000011
28	3030880	2999.886081009	0.11986571300008
28	3030880	2999.886081009	0.06075657800011
28	3030880	2999.886081009	0.10743014900004
28	3030880	2999.886081009	0.060189909999963
28	3030880	2999.886081009	0.13560243799998
28	3030880	2999.886081009	0.11837382900012
28	3030880	2999.886081009	0.13546360700002
28	3030880	2999.886081009	0.071688089999952
28	3030880	2999.886081009	0.067399625000007
28	3030880	2999.886081009	0.19492010900012
28	3030880	2999.886081009	0.16400602099998
28	3030880	2999.886081009	0.12988998200012
28	3030880	2999.886081009	0.14210316799995
28	3030880	2999.886081009	0.11914305000005
28	3030880	2999.886081009	0.11912796000001
28	3030880	2999.886081009	0.13746460800007
28	3030880	2999.886081009	0.11473558900002
28	3030880	2999.886081009	0.062126178999961
28	3030880	2999.886081009	0.14474818500003
28	3030880	2999.886081009	0.19555956499994
28	3030880	2999.886081009	0.22644751400003
28	3030880	2999.886081009	0.072452567000028
28	3030880	2999.886081009	0.061180815999933
28	3030880	2999.886081009	0.068689769999992
28	3030880	2999.886081009	0.061384523000015
28	3030880	2999.886081009	0.2037219419999
28	3030880	2999.886081009	0.10973734200002
28	3030880	2999.886081009	0.066096109
28	3030880	2999.886081009	0.27729291500009
28	3030880	2999.886081009	0.066846246000068
28	3030880	2999.886081009	0.21479270600003
28	3030880	2999.886081009	0.067795899999965
28	3030880	2999.886081009	0.21050072399998
28	3030880	2999.886081009	0.21754610400012
28	3030880	2999.886081009	0.077355603000115
28	3030880	2999.886081009	0.21389573100009
28	3030880	2999.886081009	0.071727263999946
28	3030880	2999.886081009	0.069560659999979
28	3030880	2999.886081009	0.2098093269999
28	3030880	2999.886081009	0.076210321999952
28	3030880	2999.886081009	0.11751970099999
28	3030880	2999.886081009	0.088511148999942
28	3030880	2999.886081009	0.078428008999936
28	3030880	2999.886081009	0.083344918999956
28	3030880	2999.886081009	0.071913477999942
28	3030880	2999.886081009	0.21743414999992
28	3030880	2999.886081009	0.081422033000081
28	3030880	2999.886081009	0.11432771
28	3030880	2999.886081009	0.10957299300003
28	3030880	2999.886081009	0.082449472000008
28	3030880	2999.886081009	0.065839707000123
28	3030880	2999.886081009	0.091756844999964
28	3030880	2999.886081009	0.13812665299997
28	3030880	2999.886081009	0.1911767900001
28	3030880	2999.886081009	0.10648436399993
28	3030880	2999.886081009	0.23299417499993
28	3030880	2999.886081009	0.062475489999997
28	3030880	2999.886081009	0.061703501000011
28	3030880	2999.886081009	0.23745104199998
28	3030880	2999.886081009	0.066499180999926
28	3030880	2999.886081009	0.11177806199998
28	3030880	2999.886081009	0.21477658399999
28	3030880	2999.886081009	0.11646251399998
28	3030880	2999.886081009	0.11671989499996
28	3030880	2999.886081009	0.11310336299994
28	3030880	2999.886081009	0.078837913999905
28	3030880	2999.886081009	0.070052787000122
28	3030880	2999.886081009	0.22572130999993
28	3030880	2999.886081009	0.075151623000011
28	3030880	2999.886081009	0.13923932300008
28	3030880	2999.886081009	0.086166553000112
28	3030880	2999.886081009	0.086676903000125
28	3030880	2999.886081009	0.14512868199995
28	3030880	2999.886081009	0.066916354000114
28	3030880	2999.886081009	0.10919725700001
28	3030880	2999.886081009	0.2005733850001
28	3030880	2999.886081009	0.102979903
28	3030880	2999.886081009	0.115605663
28	3030880	2999.886081009	0.10524127899998
28	3030880	2999.886081009	0.137521311
28	3030880	2999.886081009	0.11747472699994
28	3030880	2999.886081009	0.066198440000107
28	3030880	2999.886081009	0.066041631999951
28	3030880	2999.886081009	0.14775080000004
28	3030880	2999.886081009	0.11186483500001
28	3030880	2999.886081009	0.19258360799995
28	3030880	2999.886081009	0.064430282000103
28	3030880	2999.886081009	0.064120974999923
28	3030880	2999.886081009	0.07978738099996
28	3030880	2999.886081009	0.25978656699999
28	3030880	2999.886081009	0.10071969000001
28	3030880	2999.886081009	0.084127035999927
28	3030880	2999.886081009	0.23947027899999
28	3030880	2999.886081009	0.11935904999996
28	3030880	2999.886081009	0.16798629799996
28	3030880	2999.886081009	0.11799472799999
28	3030880	2999.886081009	0.13934711699994
28	3030880	2999.886081009	0.11283855400006
28	3030880	2999.886081009	0.076293057999919
28	3030880	2999.886081009	0.063079076000122
28	3030880	2999.886081009	0.11688095099998
28	3030880	2999.886081009	0.11827774299991
28	3030880	2999.886081009	0.111868383
28	3030880	2999.886081009	0.079403032000073
28	3030880	2999.886081009	0.10356496500003
28	3030880	2999.886081009	0.12021442200012
28	3030880	2999.886081009	0.11232260700012
28	3030880	2999.886081009	0.20981224100001
28	3030880	2999.886081009	0.076523910000105
28	3030880	2999.886081009	0.061488764999922
28	3030880	2999.886081009	0.11931906299992
28	3030880	2999.886081009	0.10713139099994
28	3030880	2999.886081009	0.1204092989999
28	3030880	2999.886081009	0.21523340099998
28	3030880	2999.886081009	0.1291104469999
28	3030880	2999.886081009	0.11352644099998
28	3030880	2999.886081009	0.13754579300007
28	3030880	2999.886081009	0.069002083999976
28	3030880	2999.886081009	0.118856048
28	3030880	2999.886081009	0.27478018400006
28	3030880	2999.886081009	0.1102305500001
28	3030880	2999.886081009	0.11875299799999
28	3030880	2999.886081009	0.10837836399992
28	3030880	2999.886081009	0.10309080699994
28	3030880	2999.886081009	0.13367303600012
28	3030880	2999.886081009	0.067630495000003
28	3030880	2999.886081009	0.080406136999954
28	3030880	2999.886081009	0.06837864299996
28	3030880	2999.886081009	0.064430914000013
28	3030880	2999.886081009	0.11970754799995
28	3030880	2999.886081009	0.12201671499997
28	3030880	2999.886081009	0.10749547099999
28	3030880	2999.886081009	0.11112060599999
28	3030880	2999.886081009	0.062959381999917
28	3030880	2999.886081009	0.075705912000103
28	3030880	2999.886081009	0.24488969000004
28	3030880	2999.886081009	0.069609350000064
28	3030880	2999.886081009	0.18832306200011
28	3030880	2999.886081009	0.107514799
28	3030880	2999.886081009	0.22047429899999
28	3030880	2999.886081009	0.14434887800007
28	3030880	2999.886081009	0.10656368100013
28	3030880	2999.886081009	0.22286205399996
28	3030880	2999.886081009	0.12287081399995
28	3030880	2999.886081009	0.062640545000022
28	3030880	2999.886081009	0.22117622399992
28	3030880	2999.886081009	0.077905402999932
28	3030880	2999.886081009	0.062127912000051
28	3030880	2999.886081009	0.088456637000036
28	3030880	2999.886081009	0.11052872300002
28	3030880	2999.886081009	0.062698849000071
28	3030880	2999.886081009	0.11939846700011
28	3030880	2999.886081009	0.12825952599997
28	3030880	2999.886081009	0.11728551800002
28	3030880	2999.886081009	0.19138858499991
28	3030880	2999.886081009	0.16986759399992
28	3030880	2999.886081009	0.13569787599999
28	3030880	2999.886081009	0.2096743300001
28	3030880	2999.886081009	0.25151232000007
28	3030880	2999.886081009	0.12103421200004
28	3030880	2999.886081009	0.11918083499995
28	3030880	2999.886081009	0.20788810399995
28	3030880	2999.886081009	0.078812679000066
28	3030880	2999.886081009	0.12249306700005
28	3030880	2999.886081009	0.13801606800007
28	3030880	2999.886081009	0.077618963000077
28	3030880	2999.886081009	0.069064790000084
28	3030880	2999.886081009	0.11988788400004
28	3030880	2999.886081009	0.1489437969999
28	3030880	2999.886081009	0.12042860499992
28	3030880	2999.886081009	0.12363626399997
28	3030880	2999.886081009	0.22132918900002
28	3030880	2999.886081009	0.10700715200005
28	3030880	2999.886081009	0.1328140390001
28	3030880	2999.886081009	0.22211444999994
28	3030880	2999.886081009	0.22009893199993
28	3030880	2999.886081009	0.07109461999994
28	3030880	2999.886081009	0.070320658000128
28	3030880	2999.886081009	0.22286696800006
28	3030880	2999.886081009	0.077624521999951
28	3030880	2999.886081009	0.065366867999956
28	3030880	2999.886081009	0.072816938999949
28	3030880	2999.886081009	0.121882078
28	3030880	2999.886081009	0.12161408299994
28	3030880	2999.886081009	0.13081930399994
28	3030880	2999.886081009	0.10996385499993
28	3030880	2999.886081009	0.077340971000012
28	3030880	2999.886081009	0.066854423999985
28	3030880	2999.886081009	0.070313381999995
28	3030880	2999.886081009	0.21799301400006
28	3030880	2999.886081009	0.21512508799992
28	3030880	2999.886081009	0.12243441500004
28	3030880	2999.886081009	0.07108749300005
28	3030880	2999.886081009	0.195474461
28	3030880	2999.886081009	0.077012613000079
28	3030880	2999.886081009	0.13806587399995
28	3030880	2999.886081009	0.11213806299997
28	3030880	2999.886081009	0.10657116400012
28	3030880	2999.886081009	0.21532540900012
28	3030880	2999.886081009	0.076366219999954
28	3030880	2999.886081009	0.066310415000089
28	3030880	2999.886081009	0.12163030700003
28	3030880	2999.886081009	0.14515615200003
28	3030880	2999.886081009	0.069313296000018
28	3030880	2999.886081009	0.07651930399993
28	3030880	2999.886081009	0.069020930000079
28	3030880	2999.886081009	0.062064494999959
28	3030880	2999.886081009	0.12847378600009
28	3030880	2999.886081009	0.10317549999991
28	3030880	2999.886081009	0.07380679500011
28	3030880	2999.886081009	0.088938671000051
28	3030880	2999.886081009	0.1069342620001
28	3030880	2999.886081009	0.12054498599991
28	3030880	2999.886081009	0.1409806910001
28	3030880	2999.886081009	0.11774002600009
28	3030880	2999.886081009	0.064780609000081
28	3030880	2999.886081009	0.14720149699997
28	3030880	2999.886081009	0.082855937999966
28	3030880	2999.886081009	0.13155865099998
28	3030880	2999.886081009	0.067084207000107
28	3030880	2999.886081009	0.22854824199999
28	3030880	2999.886081009	0.20223416900012
28	3030880	2999.886081009	0.069374139000047
28	3030880	2999.886081009	0.065536527999939
28	3030880	2999.886081009	0.067502671000057
28	3030880	2999.886081009	0.070651210000051
28	3030880	2999.886081009	0.23457429299992
28	3030880	2999.886081009	0.15019444500012
28	3030880	2999.886081009	0.067224248999992
28	3030880	2999.886081009	0.14600719999999
28	3030880	2999.886081009	0.21676346799995
28	3030880	2999.886081009	0.14208004600005
28	3030880	2999.886081009	0.21514927299995
28	3030880	2999.886081009	0.066905170999917
28	3030880	2999.886081009	0.228169321
28	3030880	2999.886081009	0.11014515800002
28	3030880	2999.886081009	0.069500189000109
28	3030880	2999.886081009	0.079743574000076
28	3030880	2999.886081009	0.12499802399998
28	3030880	2999.886081009	0.069636789000015
28	3030880	2999.886081009	0.17602220499998
28	3030880	2999.886081009	0.12640869400002
28	3030880	2999.886081009	0.067383774000064
28	3030880	2999.886081009	0.1379402770001
28	3030880	2999.886081009	0.072735480000119
28	3030880	2999.886081009	0.1094044240001
28	3030880	2999.886081009	0.061063964999903
28	3030880	2999.886081009	0.22555882000006
28	3030880	2999.886081009	0.069625180999992
28	3030880	2999.886081009	0.068042025000068
28	3030880	2999.886081009	0.11926255799995
28	3030880	2999.886081009	0.074286991000008
28	3030880	2999.886081009	0.066107246000001
28	3030880	2999.886081009	0.13672609800005
28	3030880	2999.886081009	0.063681149000104
28	3030880	2999.886081009	0.1337027080001
28	3030880	2999.886081009	0.11814698300009
28	3030880	2999.886081009	0.1068979690001
28	3030880	2999.886081009	0.12015021399998
28	3030880	2999.886081009	0.1453359300001
28	3030880	2999.886081009	0.071710431999918
28	3030880	2999.886081009	0.23044491900009
28	3030880	2999.886081009	0.064561617999971
28	3030880	2999.886081009	0.22329034399991
28	3030880	2999.886081009	0.073485325000092
28	3030880	2999.886081009	0.062238565999905
28	3030880	2999.886081009	0.070240668999986
28	3030880	2999.886081009	0.12819838600012
28	3030880	2999.886081009	0.063250355000037
28	3030880	2999.886081009	0.221454924
28	3030880	2999.886081009	0.14006025100002
28	3030880	2999.886081009	0.11778509100009
28	3030880	2999.886081009	0.11640691399998
28	3030880	2999.886081009	0.061018807999972
28	3030880	2999.886081009	0.082593654999982
28	3030880	2999.886081009	0.14992335400007
28	3030880	2999.886081009	0.064911378000033
28	3030880	2999.886081009	0.14676548300008
28	3030880	2999.886081009	0.070731726000076
28	3030880	2999.886081009	0.067663753000033
28	3030880	2999.886081009	0.062459498999942
28	3030880	2999.886081009	0.12987892199999
28	3030880	2999.886081009	0.12202397100009
28	3030880	2999.886081009	0.14653067299992
28	3030880	2999.886081009	0.11997791299996
28	3030880	2999.886081009	0.079926936999982
28	3030880	2999.886081009	0.082852270000103
28	3030880	2999.886081009	0.13733523299993
28	3030880	2999.886081009	0.12659914400001
28	3030880	2999.886081009	0.126661668
28	3030880	2999.886081009	0.1109131149999
28	3030880	2999.886081009	0.11242486800006
28	3030880	2999.886081009	0.12419351800008
28	3030880	2999.886081009	0.066548064000017
28	3030880	2999.886081009	0.063573535999922
28	3030880	2999.886081009	0.08112492600003
28	3030880	2999.886081009	0.22044167100012
28	3030880	2999.886081009	0.23250598499999
28	3030880	2999.886081009	0.11805693099996
28	3030880	2999.886081009	0.070158340000035
28	3030880	2999.886081009	0.12413494399993
28	3030880	2999.886081009	0.11957955999992
28	3030880	2999.886081009	0.067822926999952
28	3030880	2999.886081009	0.068164142000114
28	3030880	2999.886081009	0.1192957830001
28	3030880	2999.886081009	0.22236520499996
28	3030880	2999.886081009	0.065884033999964
28	3030880	2999.886081009	0.062533198999972
28	3030880	2999.886081009	0.12928683399991
28	3030880	2999.886081009	0.11362447700003
28	3030880	2999.886081009	0.068291785999918
28	3030880	2999.886081009	0.13926620699999
28	3030880	2999.886081009	0.065242755000099
28	3030880	2999.886081009	0.12035543299999
28	3030880	2999.886081009	0.094313164999903
28	3030880	2999.886081009	0.084622937999939
28	3030880	2999.886081009	0.1244019830001
28	3030880	2999.886081009	0.10564931199997
28	3030880	2999.886081009	0.12250816100004
28	3030880	2999.886081009	0.079985264000015
28	3030880	2999.886081009	0.22664592699994
28	3030880	2999.886081009	0.12425694100011
28	3030880	2999.886081009	0.083455195999932
28	3030880	2999.886081009	0.12651120500004
28	3030880	2999.886081009	0.14040217899992
28	3030880	2999.886081009	0.081114771000102
28	3030880	2999.886081009	0.11723989699999
28	3030880	2999.886081009	0.12276872100006
28	3030880	2999.886081009	0.11601896299999
28	3030880	2999.886081009	0.065068280000105
28	3030880	2999.886081009	0.12502479799991
28	3030880	2999.886081009	0.12801281199995
28	3030880	2999.886081009	0.19888044499999
28	3030880	2999.886081009	0.11839494700007
28	3030880	2999.886081009	0.21576054799993
28	3030880	2999.886081009	0.12178182399998
28	3030880	2999.886081009	0.080003632999933
28	3030880	2999.886081009	0.088568265000049
28	3030880	2999.886081009	0.083958094000081
29	3030880	2999.886081009	1
29	3030880	2999.886081009	1
29	3030880	2999.886081009	2
29	3030880	2999.886081009	2
29	3030880	2999.886081009	1
29	3030880	2999.886081009	2
29	3030880	2999.886081009	2
29	3030880	2999.886081009	2
29	3030880	2999.886081009	2
29	3030880	2999.886081009	2
29	3030880	2999.886081009	2
29	3030880	2999.886081009	2
29	3030880	2999.886081009	2
29	3030880	2999.886081009	3
29	3030880	2999.886081009	3
29	3030880	2999.886081009	3
29	3030880	2999.886081009	3
29	3030880	2999.886081009	3
29	3030880	2999.886081009	3
29	3030880	2999.886081009	3
29	3030880	2999.886081009	3
29	3030880	2999.886081009	3
29	3030880	2999.886081009	3
29	3030880	2999.886081009	3
29	3030880	2999.886081009	4
29	3030880	2999.886081009	3
29	3030880	2999.886081009	4
29	3030880	2999.886081009	3
29	3030880	2999.886081009	4
29	3030880	2999.886081009	3
29	3030880	2999.886081009	3
29	3030880	2999.886081009	4
29	3030880	2999.886081009	3
29	3030880	2999.886081009	4
29	3030880	2999.886081009	4
29	3030880	2999.886081009	3
29	3030880	2999.886081009	4
29	3030880	2999.886081009	4
29	3030880	2999.886081009	5
29	3030880	2999.886081009	2
29	3030880	2999.886081009	4
29	3030880	2999.886081009	4
29	3030880	2999.886081009	4
29	3030880	2999.886081009	3
29	3030880	2999.886081009	4
29	3030880	2999.886081009	5
29	3030880	2999.886081009	5
29	3030880	2999.886081009	4
29	3030880	2999.886081009	5
29	3030880	2999.886081009	5
29	3030880	2999.886081009	4
29	3030880	2999.886081009	4
29	3030880	2999.886081009	6
29	3030880	2999.886081009	5
29	3030880	2999.886081009	4
29	3030880	2999.886081009	5
29	3030880	2999.886081009	4
29	3030880	2999.886081009	5
29	3030880	2999.886081009	6
29	3030880	2999.886081009	5
29	3030880	2999.886081009	4
29	3030880	2999.886081009	5
29	3030880	2999.886081009	4
29	3030880	2999.886081009	5
29	3030880	2999.886081009	4
29	3030880	2999.886081009	5
29	3030880	2999.886081009	4
29	3030880	2999.886081009	5
29	3030880	2999.886081009	2
29	3030880	2999.886081009	5
29	3030880	2999.886081009	4
29	3030880	2999.886081009	4
29	3030880	2999.886081009	2
29	3030880	2999.886081009	4
29	3030880	2999.886081009	5
29	3030880	2999.886081009	4
29	3030880	2999.886081009	5
29	3030880	2999.886081009	6
29	3030880	2999.886081009	4
29	3030880	2999.886081009	6
29	3030880	2999.886081009	5
29	3030880	2999.886081009	6
29	3030880	2999.886081009	5
29	3030880	2999.886081009	5
29	3030880	2999.886081009	6
29	3030880	2999.886081009	5
29	3030880	2999.886081009	6
29	3030880	2999.886081009	4
29	3030880	2999.886081009	5
29	3030880	2999.886081009	6
29	3030880	2999.886081009	6
29	3030880	2999.886081009	5
29	3030880	2999.886081009	4
29	3030880	2999.886081009	6
29	3030880	2999.886081009	6
29	3030880	2999.886081009	6
29	3030880	2999.886081009	5
29	3030880	2999.886081009	6
29	3030880	2999.886081009	5
29	3030880	2999.886081009	6
29	3030880	2999.886081009	6
29	3030880	2999.886081009	5
29	3030880	2999.886081009	4
29	3030880	2999.886081009	7
29	3030880	2999.886081009	3
29	3030880	2999.886081009	5
29	3030880	2999.886081009	6
29	3030880	2999.886081009	5
29	3030880	2999.886081009	6
29	3030880	2999.886081009	5
29	3030880	2999.886081009	7
29	3030880	2999.886081009	5
29	3030880	2999.886081009	6
29	3030880	2999.886081009	5
29	3030880	2999.886081009	5
29	3030880	2999.886081009	6
29	3030880	2999.886081009	5
29	3030880	2999.886081009	7
29	3030880	2999.886081009	4
29	3030880	2999.886081009	5
29	3030880	2999.886081009	5
29	3030880	2999.886081009	6
29	3030880	2999.886081009	4
29	3030880	2999.886081009	6
29	3030880	2999.886081009	4
29	3030880	2999.886081009	4
29	3030880	2999.886081009	5
29	3030880	2999.886081009	5
29	3030880	2999.886081009	7
29	3030880	2999.886081009	7
29	3030880	2999.886081009	4
29	3030880	2999.886081009	5
29	3030880	2999.886081009	7
29	3030880	2999.886081009	5
29	3030880	2999.886081009	6
29	3030880	2999.886081009	6
29	3030880	2999.886081009	5
29	3030880	2999.886081009	5
29	3030880	2999.886081009	6
29	3030880	2999.886081009	2
29	3030880	2999.886081009	6
29	3030880	2999.886081009	6
29	3030880	2999.886081009	6
29	3030880	2999.886081009	5
29	3030880	2999.886081009	4
29	3030880	2999.886081009	5
29	3030880	2999.886081009	5
29	3030880	2999.886081009	5
29	3030880	2999.886081009	6
29	3030880	2999.886081009	7
29	3030880	2999.886081009	4
29	3030880	2999.886081009	5
29	3030880	2999.886081009	6
29	3030880	2999.886081009	6
29	3030880	2999.886081009	8
29	3030880	2999.886081009	4
29	3030880	2999.886081009	5
29	3030880	2999.886081009	4
29	3030880	2999.886081009	6
29	3030880	2999.886081009	5
29	3030880	2999.886081009	6
29	3030880	2999.886081009	6
29	3030880	2999.886081009	5
29	3030880	2999.886081009	6
29	3030880	2999.886081009	6
29	3030880	2999.886081009	6
29	3030880	2999.886081009	5
29	3030880	2999.886081009	5
29	3030880	2999.886081009	4
29	3030880	2999.886081009	2
29	3030880	2999.886081009	6
29	3030880	2999.886081009	6
29	3030880	2999.886081009	6
29	3030880	2999.886081009	5
29	3030880	2999.886081009	5
29	3030880	2999.886081009	7
29	3030880	2999.886081009	6
29	3030880	2999.886081009	6
29	3030880	2999.886081009	7
29	3030880	2999.886081009	5
29	3030880	2999.886081009	3
29	3030880	2999.886081009	6
29	3030880	2999.886081009	5
29	3030880	2999.886081009	6
29	3030880	2999.886081009	6
29	3030880	2999.886081009	7
29	3030880	2999.886081009	4
29	3030880	2999.886081009	6
29	3030880	2999.886081009	5
29	3030880	2999.886081009	6
29	3030880	2999.886081009	4
29	3030880	2999.886081009	6
29	3030880	2999.886081009	7
29	3030880	2999.886081009	4
29	3030880	2999.886081009	5
29	3030880	2999.886081009	7
29	3030880	2999.886081009	4
29	3030880	2999.886081009	5
29	3030880	2999.886081009	7
29	3030880	2999.886081009	7
29	3030880	2999.886081009	6
29	3030880	2999.886081009	5
29	3030880	2999.886081009	5
29	3030880	2999.886081009	5
29	3030880	2999.886081009	5
29	3030880	2999.886081009	5
29	3030880	2999.886081009	5
29	3030880	2999.886081009	6
29	3030880	2999.886081009	7
29	3030880	2999.886081009	6
29	3030880	2999.886081009	7
29	3030880	2999.886081009	7
29	3030880	2999.886081009	6
29	3030880	2999.886081009	2
29	3030880	2999.886081009	5
29	3030880	2999.886081009	2
29	3030880	2999.886081009	6
29	3030880	2999.886081009	6
29	3030880	2999.886081009	3
29	3030880	2999.886081009	7
29	3030880	2999.886081009	6